                         Program Version 6.0.1  -  RELEASE   -
|  1>  ! DEFGRID2
|  2>  ! wB97X-3c
|  3>  ! SP
|  4>  %pal
|  5> nprocs 1
|  6>  end
|  7>  %maxcore 8000
|  8>  *xyzfile            1             1  fragment.xyz
|  9>
| 10>                          ****END OF INPUT****

CARTESIAN COORDINATES (ANGSTROEM)
---------------------------------
  C     -0.530841   -1.697848   -0.230106
  C      0.736363   -1.021719   -0.050597
  C     -0.082254    1.281897   -0.091784
  O      0.965855    0.210468   -0.045913
  O     -1.097310    1.128495    0.440977
  H     -0.360522   -2.560402   -0.876309
  H     -0.786882   -2.120957    0.750643
  H     -1.348044   -1.078311   -0.575933
  H      1.641108   -1.611865    0.101068
  H      0.366109    2.118411   -0.628659

 Total Charge           Charge          ....    1
 Multiplicity           Mult            ....    1
 Number of Electrons    NEL             ....   28
 Basis Dimension        Dim             ....   90

ORBITAL ENERGIES
----------------

  NO   OCC          E(Eh)            E(eV)
   0   2.0000      -1.519370       -41.3442
   1   2.0000      -1.445542       -39.3352
   2   2.0000      -1.162092       -31.6221
   3   2.0000      -1.079770       -29.3820
   4   2.0000      -0.942751       -25.6536
   5   2.0000      -0.882996       -24.0276
   6   2.0000      -0.877326       -23.8733
   7   2.0000      -0.840740       -22.8777
   8   2.0000      -0.810934       -22.0666
   9   2.0000      -0.770620       -20.9696
  10   2.0000      -0.744530       -20.2597
  11   2.0000      -0.731523       -19.9058
  12   2.0000      -0.721918       -19.6444
  13   2.0000      -0.647557       -17.6209
  14   0.0000      -0.232835        -6.3358
  15   0.0000      -0.150173        -4.0864
  16   0.0000      -0.086930        -2.3655
  17   0.0000      -0.055439        -1.5086
  18   0.0000      -0.051241        -1.3943

MULLIKEN ATOMIC CHARGES
-----------------------
   0 C :   -0.023317
   1 C :    0.274458
   2 C :    0.391577
   3 O :   -0.098743
   4 O :   -0.097931
   5 H :    0.115297
   6 H :    0.130254
   7 H :    0.107997
   8 H :    0.102001
   9 H :    0.098406
Sum of atomic charges:    1.0000000

LOEWDIN ATOMIC CHARGES
----------------------
   0 C :   -0.037345
   1 C :    0.220169
   2 C :    0.157156
   3 O :    0.094351
   4 O :    0.046776
   5 H :    0.105833
   6 H :    0.119506
   7 H :    0.080713
   8 H :    0.114078
   9 H :    0.098764

  Mayer bond orders larger than 0.100000
B(  0-C ,  1-C ) :   1.1105 B(  0-C ,  5-H ) :   0.9339 B(  0-C ,  6-H ) :   0.9031
B(  0-C ,  7-H ) :   0.9633 B(  1-C ,  3-O ) :   1.4918 B(  1-C ,  8-H ) :   1.0123
B(  2-C ,  3-O ) :   0.7251 B(  2-C ,  4-O ) :   2.1557 B(  2-C ,  9-H ) :   1.0204

Dispersion correction           -0.006235261
FINAL SINGLE POINT ENERGY       -51.884688318687

DIPOLE MOMENT
-------------

Method             : SCF
Type of density    : Electron Density
Multiplicity       :   1
Irrep              :   0
Energy             :   -51.8784530572452383 Eh
Relativity type    :
Basis              : AO
                                X                 Y                 Z
Electronic contribution:      1.380812347       3.725686769       0.560488502
Nuclear contribution   :     -0.645319194      -4.756851577      -1.114786722
                        -----------------------------------------
Total Dipole Moment    :      0.735493153      -1.031164808      -0.554298220
                        -----------------------------------------
Magnitude (a.u.)       :      1.382569187
Magnitude (Debye)      :      3.514211593

Rotational constants in cm-1:             0.331205             0.145119             0.106061
Rotational constants in MHz :          9929.265833          4350.557670          3179.623476

                             ****ORCA TERMINATED NORMALLY****
TOTAL RUN TIME: 0 days 0 hours 0 minutes 58 seconds 904 msec
