                         Program Version 6.0.1  -  RELEASE   -
|  1>  ! DEFGRID2
|  2>  ! wB97X-3c
|  3>  ! SP
|  4>  %pal
|  5> nprocs 1
|  6>  end
|  7>  %maxcore 8000
|  8>  *xyzfile            1             1  fragment.xyz
|  9>
| 10>                          ****END OF INPUT****

CARTESIAN COORDINATES (ANGSTROEM)
---------------------------------
  C     -0.644089   -3.520953   -0.667688
  C      0.017542   -3.564796    0.529272
  H     -0.130299   -3.760923   -1.592960
  H     -0.603985   -4.608112    0.052257
  H     -1.689902   -3.234241   -0.710209
  H      1.066420   -3.839859    0.571362
  H     -0.494771   -3.312663    1.452076

 Total Charge           Charge          ....    1
 Multiplicity           Mult            ....    1
 Number of Electrons    NEL             ....   12
 Basis Dimension        Dim             ....   51

ORBITAL ENERGIES
----------------

  NO   OCC          E(Eh)            E(eV)
   0   2.0000      -1.264389       -34.4058
   1   2.0000      -1.003359       -27.3028
   2   2.0000      -0.888335       -24.1728
   3   2.0000      -0.860164       -23.4062
   4   2.0000      -0.786568       -21.4036
   5   2.0000      -0.758355       -20.6359
   6   0.0000      -0.225057        -6.1241
   7   0.0000      -0.128908        -3.5078
   8   0.0000      -0.082380        -2.2417
   9   0.0000      -0.074363        -2.0235
  10   0.0000      -0.067559        -1.8384

MULLIKEN ATOMIC CHARGES
-----------------------
   0 C :    0.188839
   1 C :    0.189088
   2 H :    0.120439
   3 H :    0.139991
   4 H :    0.120538
   5 H :    0.120640
   6 H :    0.120464
Sum of atomic charges:    1.0000000

LOEWDIN ATOMIC CHARGES
----------------------
   0 C :    0.167180
   1 C :    0.167303
   2 H :    0.111802
   3 H :    0.218274
   4 H :    0.111827
   5 H :    0.111809
   6 H :    0.111805

  Mayer bond orders larger than 0.100000
B(  0-C ,  1-C ) :   1.2937 B(  0-C ,  2-H ) :   0.9818 B(  0-C ,  3-H ) :   0.5015
B(  0-C ,  4-H ) :   0.9817 B(  1-C ,  3-H ) :   0.5014 B(  1-C ,  5-H ) :   0.9817
B(  1-C ,  6-H ) :   0.9818

Dispersion correction           -0.001988350
FINAL SINGLE POINT ENERGY       -14.044863415035

DIPOLE MOMENT
-------------

Method             : SCF
Type of density    : Electron Density
Multiplicity       :   1
Irrep              :   0
Energy             :   -14.0428750655154708 Eh
Relativity type    :
Basis              : AO
                                X                 Y                 Z
Electronic contribution:      0.203071947       0.737090235      -0.084031417
Nuclear contribution   :     -0.296943868      -1.080638286       0.123033398
                        -----------------------------------------
Total Dipole Moment    :     -0.093871921      -0.343548051       0.039001981
                        -----------------------------------------
Magnitude (a.u.)       :      0.358271343
Magnitude (Debye)      :      0.910653384

Rotational constants in cm-1:             3.571065             0.905710             0.805516
Rotational constants in MHz :        107057.827411         27152.498658         24148.759129

                             ****ORCA TERMINATED NORMALLY****
TOTAL RUN TIME: 0 days 0 hours 0 minutes 16 seconds 547 msec
