                         Program Version 6.0.1  -  RELEASE   -
|  1>  ! DEFGRID2
|  2>  ! wB97X-3c
|  3>  ! SP
|  4>  %pal
|  5> nprocs 1
|  6>  end
|  7>  %maxcore 8000
|  8>  *xyzfile            0             2  fragment.xyz
|  9>
| 10>                          ****END OF INPUT****

CARTESIAN COORDINATES (ANGSTROEM)
---------------------------------
  C      2.386896    3.946140   -0.394558
  O      1.457400    3.537211    0.189076
  H      2.711100    5.014980   -0.370656

 Total Charge           Charge          ....    0
 Multiplicity           Mult            ....    2
 Number of Electrons    NEL             ....   11
 Basis Dimension        Dim             ....   31

ORBITAL ENERGIES
----------------
                 SPIN UP ORBITALS
  NO   OCC          E(Eh)            E(eV)
   0   1.0000      -1.243422       -33.8352
   1   1.0000      -0.750236       -20.4150
   2   1.0000      -0.627087       -17.0639
   3   1.0000      -0.566142       -15.4055
   4   1.0000      -0.557484       -15.1699
   5   1.0000      -0.331502        -9.0206
   6   0.0000       0.037956         1.0328
   7   0.0000       0.094622         2.5748
   8   0.0000       0.218887         5.9562
   9   0.0000       0.376375        10.2417
  10   0.0000       0.395203        10.7540

                 SPIN DOWN ORBITALS
  NO   OCC          E(Eh)            E(eV)
   0   1.0000      -1.226287       -33.3690
   1   1.0000      -0.718784       -19.5591
   2   1.0000      -0.600662       -16.3448
   3   1.0000      -0.548087       -14.9142
   4   1.0000      -0.507688       -13.8149
   5   0.0000       0.006328         0.1722
   6   0.0000       0.052921         1.4401
   7   0.0000       0.101434         2.7601
   8   0.0000       0.222931         6.0663
   9   0.0000       0.403548        10.9811

MULLIKEN ATOMIC CHARGES AND SPIN POPULATIONS
--------------------------------------------
   0 C :    0.024342    0.626937
   1 O :   -0.102306    0.247461
   2 H :    0.077963    0.125602
Sum of atomic charges         :   -0.0000000

LOEWDIN ATOMIC CHARGES AND SPIN POPULATIONS
-------------------------------------------
   0 C :    0.033217    0.611378
   1 O :   -0.053615    0.280776
   2 H :    0.020397    0.107846

  Mayer bond orders larger than 0.100000
B(  0-C ,  1-O ) :   2.1439 B(  0-C ,  2-H ) :   0.9790

Dispersion correction           -0.000810734
FINAL SINGLE POINT ENERGY       -22.270260496946

DIPOLE MOMENT
-------------

Method             : SCF
Type of density    : Electron Density
Multiplicity       :   2
Irrep              :   0
Energy             :   -22.2694497628455323 Eh
Relativity type    :
Basis              : AO
                                X                 Y                 Z
Electronic contribution:     -0.082759253      -0.696660634      -0.110201019
Nuclear contribution   :      0.492415370       1.298120058      -0.043584125
                        -----------------------------------------
Total Dipole Moment    :      0.409656117       0.601459424      -0.153785144
                        -----------------------------------------
Magnitude (a.u.)       :      0.743788574
Magnitude (Debye)      :      1.890560310

Rotational constants in cm-1:            23.729403             1.511068             1.420605
Rotational constants in MHz :        711389.596504         45300.676753         42588.667115

                             ****ORCA TERMINATED NORMALLY****
TOTAL RUN TIME: 0 days 0 hours 0 minutes 5 seconds 711 msec
