                         Program Version 6.0.1  -  RELEASE   -
|  1>  ! DEFGRID2
|  2>  ! wB97X-3c
|  3>  ! SP
|  4>  %pal
|  5> nprocs 1
|  6>  end
|  7>  %maxcore 8000
|  8>  *xyzfile            1             1  fragment.xyz
|  9>
| 10>                          ****END OF INPUT****

CARTESIAN COORDINATES (ANGSTROEM)
---------------------------------
  C      0.848916   -3.713384   -0.414037
  C      1.596796   -2.574579    0.236917
  O      1.125601   -1.328802   -0.040593
  H      0.877668   -3.620018   -1.498170
  H      1.293572   -4.669289   -0.138813
  H     -0.193248   -3.715104   -0.099697
  H      2.666419   -2.578577   -0.025746
  H      1.611071   -2.666767    1.334734

 Total Charge           Charge          ....    1
 Multiplicity           Mult            ....    1
 Number of Electrons    NEL             ....   18
 Basis Dimension        Dim             ....   64

ORBITAL ENERGIES
----------------

  NO   OCC          E(Eh)            E(eV)
   0   2.0000      -1.476999       -40.1912
   1   2.0000      -1.157070       -31.4855
   2   2.0000      -1.026234       -27.9253
   3   2.0000      -0.898427       -24.4474
   4   2.0000      -0.889067       -24.1928
   5   2.0000      -0.833362       -22.6769
   6   2.0000      -0.736088       -20.0300
   7   2.0000      -0.731255       -19.8985
   8   2.0000      -0.708139       -19.2694
   9   0.0000      -0.443414       -12.0659
  10   0.0000      -0.114987        -3.1290
  11   0.0000      -0.075141        -2.0447
  12   0.0000      -0.060282        -1.6404
  13   0.0000      -0.044397        -1.2081

MULLIKEN ATOMIC CHARGES
-----------------------
   0 C :   -0.025221
   1 C :    0.159467
   2 O :    0.131046
   3 H :    0.111111
   4 H :    0.095475
   5 H :    0.110519
   6 H :    0.207292
   7 H :    0.210312
Sum of atomic charges:    1.0000000

LOEWDIN ATOMIC CHARGES
----------------------
   0 C :   -0.032406
   1 C :    0.079365
   2 O :    0.287898
   3 H :    0.095221
   4 H :    0.085885
   5 H :    0.094968
   6 H :    0.193122
   7 H :    0.195946

  Mayer bond orders larger than 0.100000
B(  0-C ,  1-C ) :   1.0333 B(  0-C ,  3-H ) :   0.9332 B(  0-C ,  4-H ) :   0.9676
B(  0-C ,  5-H ) :   0.9338 B(  1-C ,  2-O ) :   1.3233 B(  1-C ,  6-H ) :   0.7697
B(  1-C ,  7-H ) :   0.7642 B(  2-O ,  6-H ) :   0.1503 B(  2-O ,  7-H ) :   0.1548

Dispersion correction           -0.003089509
FINAL SINGLE POINT ENERGY       -29.946904508879

DIPOLE MOMENT
-------------

Method             : SCF
Type of density    : Electron Density
Multiplicity       :   1
Irrep              :   0
Energy             :   -29.9438150001356647 Eh
Relativity type    :
Basis              : AO
                                X                 Y                 Z
Electronic contribution:      0.398665176       3.602477134       0.546542082
Nuclear contribution   :      0.290523803      -4.221137435      -0.051203459
                        -----------------------------------------
Total Dipole Moment    :      0.689188979      -0.618660301       0.495338622
                        -----------------------------------------
Magnitude (a.u.)       :      1.050277281
Magnitude (Debye)      :      2.669592692

Rotational constants in cm-1:             1.339125             0.323327             0.287703
Rotational constants in MHz :         40145.967733          9693.102013          8625.121168

                             ****ORCA TERMINATED NORMALLY****
TOTAL RUN TIME: 0 days 0 hours 0 minutes 31 seconds 13 msec
