                         Program Version 6.0.1  -  RELEASE   -
|  1>  ! DEFGRID2
|  2>  ! wB97X-3c
|  3>  ! SP
|  4>  %pal
|  5> nprocs 16
|  6>  end
|  7>  %maxcore 8000
|  8>  *xyzfile            1             2  in.xyz
|  9>
| 10>                          ****END OF INPUT****

CARTESIAN COORDINATES (ANGSTROEM)
---------------------------------
  C     -1.785998    0.606822   -0.357808
  C     -0.820121   -0.406937    0.602939
  C      1.391841   -0.197856   -0.280326
  O      0.119747   -0.902367   -0.187021
  O      1.516008    0.856172    0.202819
  H     -2.130551    0.004859   -1.190124
  H     -2.566770    0.877663    0.346869
  H     -1.125891    1.423564   -0.629290
  H     -1.544412   -1.182199    0.856957
  H     -0.460244    0.254798    1.390073
  H      2.075838   -0.820426   -0.857724

 Total Charge           Charge          ....    1
 Multiplicity           Mult            ....    2
 Number of Electrons    NEL             ....   29
 Basis Dimension        Dim             ....   95

ORBITAL ENERGIES
----------------
                 SPIN UP ORBITALS
  NO   OCC          E(Eh)            E(eV)
   0   1.0000      -1.513523       -41.1851
   1   1.0000      -1.429340       -38.8943
   2   1.0000      -1.154893       -31.4262
   3   1.0000      -1.059274       -28.8243
   4   1.0000      -0.954370       -25.9697
   5   1.0000      -0.916063       -24.9273
   6   1.0000      -0.864342       -23.5199
   7   1.0000      -0.845918       -23.0186
   8   1.0000      -0.815426       -22.1889
   9   1.0000      -0.770332       -20.9618
  10   1.0000      -0.754331       -20.5264
  11   1.0000      -0.750117       -20.4117
  12   1.0000      -0.719122       -19.5683
  13   1.0000      -0.664903       -18.0929
  14   1.0000      -0.651071       -17.7165
  15   0.0000      -0.152961        -4.1623
  16   0.0000      -0.083971        -2.2850
  17   0.0000      -0.056327        -1.5327
  18   0.0000      -0.053800        -1.4640
  19   0.0000      -0.040434        -1.1003

                 SPIN DOWN ORBITALS
  NO   OCC          E(Eh)            E(eV)
   0   1.0000      -1.496414       -40.7195
   1   1.0000      -1.419358       -38.6227
   2   1.0000      -1.133379       -30.8408
   3   1.0000      -1.044617       -28.4255
   4   1.0000      -0.939633       -25.5687
   5   1.0000      -0.911644       -24.8071
   6   1.0000      -0.844629       -22.9835
   7   1.0000      -0.811888       -22.0926
   8   1.0000      -0.805654       -21.9230
   9   1.0000      -0.762068       -20.7369
  10   1.0000      -0.745468       -20.2852
  11   1.0000      -0.718620       -19.5546
  12   1.0000      -0.711801       -19.3691
  13   1.0000      -0.646338       -17.5878
  14   0.0000      -0.364086        -9.9073
  15   0.0000      -0.143231        -3.8975
  16   0.0000      -0.079468        -2.1624
  17   0.0000      -0.053257        -1.4492
  18   0.0000      -0.046294        -1.2597

MULLIKEN ATOMIC CHARGES AND SPIN POPULATIONS
--------------------------------------------
   0 C :    0.052300    0.343416
   1 C :    0.109003    0.161312
   2 C :    0.381236   -0.043765
   3 O :   -0.088859    0.394981
   4 O :   -0.130292    0.073894
   5 H :    0.108322   -0.002424
   6 H :    0.108290    0.010787
   7 H :    0.110543    0.004435
   8 H :    0.132833    0.039536
   9 H :    0.124135    0.018519
  10 H :    0.092489   -0.000690
Sum of atomic charges         :    1.0000000

LOEWDIN ATOMIC CHARGES AND SPIN POPULATIONS
-------------------------------------------
   0 C :    0.098883    0.287358
   1 C :    0.067611    0.185227
   2 C :    0.129671   -0.021204
   3 O :    0.125769    0.380837
   4 O :    0.027422    0.064236
   5 H :    0.081289    0.010266
   6 H :    0.092193    0.021180
   7 H :    0.079841    0.016750
   8 H :    0.110994    0.035633
   9 H :    0.089791    0.021892
  10 H :    0.096535   -0.002175

  Mayer bond orders larger than 0.100000
B(  0-C ,  1-C ) :   0.6709 B(  0-C ,  5-H ) :   0.9787 B(  0-C ,  6-H ) :   0.9712
B(  0-C ,  7-H ) :   0.9761 B(  1-C ,  3-O ) :   1.2155 B(  1-C ,  8-H ) :   0.9622
B(  1-C ,  9-H ) :   0.9734 B(  2-C ,  3-O ) :   0.8153 B(  2-C ,  4-O ) :   2.0895
B(  2-C , 10-H ) :   1.0214

Dispersion correction           -0.006665737
FINAL SINGLE POINT ENERGY       -52.423677509890

DIPOLE MOMENT
-------------

Method             : SCF
Type of density    : Electron Density
Multiplicity       :   2
Irrep              :   0
Energy             :   -52.4170117727767391 Eh
Relativity type    :
Basis              : AO
                                X                 Y                 Z
Electronic contribution:      4.714127888      -1.138127215      -0.011804941
Nuclear contribution   :     -5.930860694       0.662826934      -0.049920167
                        -----------------------------------------
Total Dipole Moment    :     -1.216732806      -0.475300281      -0.061725108
                        -----------------------------------------
Magnitude (a.u.)       :      1.307730503
Magnitude (Debye)      :      3.323986777

Rotational constants in cm-1:             0.337420             0.121108             0.103885
Rotational constants in MHz :         10115.593179          3630.719191          3114.405189

                             ****ORCA TERMINATED NORMALLY****
TOTAL RUN TIME: 0 days 0 hours 0 minutes 14 seconds 506 msec
