                         Program Version 6.0.1  -  RELEASE   -
|  1>  ! DEFGRID2
|  2>  ! wB97X-3c
|  3>  ! SP
|  4>  %pal
|  5> nprocs 1
|  6>  end
|  7>  %maxcore 8000
|  8>  *xyzfile            1             1  fragment.xyz
|  9>
| 10>                          ****END OF INPUT****

CARTESIAN COORDINATES (ANGSTROEM)
---------------------------------
  C      0.012979    4.364576   -0.015541
  O      1.153544    4.163246   -0.369661
  O     -1.050772    4.451237    0.318955
  H      1.765813    4.899563   -0.591116

 Total Charge           Charge          ....    1
 Multiplicity           Mult            ....    1
 Number of Electrons    NEL             ....   16
 Basis Dimension        Dim             ....   44

ORBITAL ENERGIES
----------------

  NO   OCC          E(Eh)            E(eV)
   0   2.0000      -1.640998       -44.6538
   1   2.0000      -1.591211       -43.2991
   2   2.0000      -1.156375       -31.4666
   3   2.0000      -0.976056       -26.5598
   4   2.0000      -0.964896       -26.2561
   5   2.0000      -0.949090       -25.8261
   6   2.0000      -0.846618       -23.0377
   7   2.0000      -0.820773       -22.3344
   8   0.0000      -0.223014        -6.0685
   9   0.0000      -0.190547        -5.1851
  10   0.0000      -0.187929        -5.1138
  11   0.0000      -0.063166        -1.7188
  12   0.0000       0.062782         1.7084

MULLIKEN ATOMIC CHARGES
-----------------------
   0 C :    0.475429
   1 O :    0.129406
   2 O :    0.132513
   3 H :    0.262652
Sum of atomic charges:    1.0000000

LOEWDIN ATOMIC CHARGES
----------------------
   0 C :    0.270060
   1 O :    0.285794
   2 O :    0.244427
   3 H :    0.199719

  Mayer bond orders larger than 0.100000
B(  0-C ,  1-O ) :   1.6014 B(  0-C ,  2-O ) :   2.4414 B(  1-O ,  2-O ) :   0.1639
B(  1-O ,  3-H ) :   0.9486

Dispersion correction           -0.001262315
FINAL SINGLE POINT ENERGY       -38.044181215291

DIPOLE MOMENT
-------------

Method             : SCF
Type of density    : Electron Density
Multiplicity       :   1
Irrep              :   0
Energy             :   -38.0429188999171188 Eh
Relativity type    :
Basis              : AO
                                X                 Y                 Z
Electronic contribution:     -0.827581886      -0.041653011       0.263513978
Nuclear contribution   :      2.045434417       0.635198028      -0.672097750
                        -----------------------------------------
Total Dipole Moment    :      1.217852531       0.593545017      -0.408583772
                        -----------------------------------------
Magnitude (a.u.)       :      1.415062251
Magnitude (Debye)      :      3.596802399

Rotational constants in cm-1:            27.586558             0.363814             0.359079
Rotational constants in MHz :        827024.198226         10906.876628         10764.908191

                             ****ORCA TERMINATED NORMALLY****
TOTAL RUN TIME: 0 days 0 hours 0 minutes 11 seconds 983 msec
