                         Program Version 6.0.1  -  RELEASE   -
|  1>  ! DEFGRID2
|  2>  ! wB97X-3c
|  3>  ! SP
|  4>  %pal
|  5> nprocs 1
|  6>  end
|  7>  %maxcore 8000
|  8>  *xyzfile            1             1  fragment.xyz
|  9>
| 10>                          ****END OF INPUT****

CARTESIAN COORDINATES (ANGSTROEM)
---------------------------------
  C      1.331182   -4.412532   -0.388979
  C      3.346674   -3.309994    0.496931
  O      2.620696   -4.047919   -0.354753
  H      1.065858   -5.022031   -1.233239
  H      3.142456   -4.393432   -1.111527
  H      0.726104   -4.048651    0.422443
  H      4.381446   -3.210343    0.224983
  H      2.810029   -2.918889    1.343084

 Total Charge           Charge          ....    1
 Multiplicity           Mult            ....    1
 Number of Electrons    NEL             ....   18
 Basis Dimension        Dim             ....   64

ORBITAL ENERGIES
----------------

  NO   OCC          E(Eh)            E(eV)
   0   2.0000      -1.613605       -43.9084
   1   2.0000      -1.200889       -32.6778
   2   2.0000      -1.120315       -30.4853
   3   2.0000      -0.943405       -25.6713
   4   2.0000      -0.913709       -24.8633
   5   2.0000      -0.893739       -24.3199
   6   2.0000      -0.792618       -21.5682
   7   2.0000      -0.790269       -21.5043
   8   2.0000      -0.512692       -13.9511
   9   0.0000      -0.245443        -6.6788
  10   0.0000      -0.160438        -4.3657
  11   0.0000      -0.070248        -1.9115
  12   0.0000      -0.053528        -1.4566
  13   0.0000      -0.049949        -1.3592

MULLIKEN ATOMIC CHARGES
-----------------------
   0 C :    0.051462
   1 C :    0.051410
   2 O :    0.215627
   3 H :    0.101684
   4 H :    0.268912
   5 H :    0.104464
   6 H :    0.101766
   7 H :    0.104677
Sum of atomic charges:    1.0000000

LOEWDIN ATOMIC CHARGES
----------------------
   0 C :    0.088974
   1 C :    0.088965
   2 O :    0.350653
   3 H :    0.061822
   4 H :    0.215524
   5 H :    0.066112
   6 H :    0.061827
   7 H :    0.066123

  Mayer bond orders larger than 0.100000
B(  0-C ,  1-C ) :   0.6441 B(  0-C ,  2-O ) :   1.0961 B(  0-C ,  3-H ) :   0.9982
B(  0-C ,  5-H ) :   1.0044 B(  1-C ,  2-O ) :   1.0961 B(  1-C ,  6-H ) :   0.9982
B(  1-C ,  7-H ) :   1.0042 B(  2-O ,  4-H ) :   0.9420

Dispersion correction           -0.003282960
FINAL SINGLE POINT ENERGY       -29.953474465776

DIPOLE MOMENT
-------------

Method             : SCF
Type of density    : Electron Density
Multiplicity       :   1
Irrep              :   0
Energy             :   -29.9501915053618859 Eh
Relativity type    :
Basis              : AO
                                X                 Y                 Z
Electronic contribution:      0.266519691      -0.175615051      -0.387597030
Nuclear contribution   :      0.071364695      -0.048742641      -0.101963022
                        -----------------------------------------
Total Dipole Moment    :      0.337884386      -0.224357693      -0.489560052
                        -----------------------------------------
Magnitude (a.u.)       :      0.635744663
Magnitude (Debye)      :      1.615934514

Rotational constants in cm-1:             2.037977             0.351678             0.299923
Rotational constants in MHz :         61097.000386         10543.051894          8991.480285

                             ****ORCA TERMINATED NORMALLY****
TOTAL RUN TIME: 0 days 0 hours 0 minutes 24 seconds 271 msec
