                         Program Version 6.0.1  -  RELEASE   -
|  1>  ! DEFGRID2
|  2>  ! wB97X-3c
|  3>  ! SP
|  4>  %pal
|  5> nprocs 1
|  6>  end
|  7>  %maxcore 8000
|  8>  *xyzfile            0             2  fragment.xyz
|  9>
| 10>                          ****END OF INPUT****

CARTESIAN COORDINATES (ANGSTROEM)
---------------------------------
  C     -0.152360   -1.802837   -0.470953
  C      0.585283   -0.921891    0.450473
  C      0.039426    1.288479   -0.143979
  O      0.945978    0.317708   -0.167062
  O     -1.047667    1.220672    0.347098
  H     -0.444260   -1.457208   -1.450203
  H     -0.454062   -2.784484   -0.138133
  H      1.534085   -1.365926    0.756748
  H      0.005834   -0.713313    1.353106
  H      0.439804    2.175877   -0.645125

 Total Charge           Charge          ....    0
 Multiplicity           Mult            ....    2
 Number of Electrons    NEL             ....   29
 Basis Dimension        Dim             ....   90

ORBITAL ENERGIES
----------------
                 SPIN UP ORBITALS
  NO   OCC          E(Eh)            E(eV)
   0   1.0000      -1.253171       -34.1005
   1   1.0000      -1.158796       -31.5324
   2   1.0000      -0.929189       -25.2845
   3   1.0000      -0.807378       -21.9699
   4   1.0000      -0.712982       -19.4012
   5   1.0000      -0.669956       -18.2304
   6   1.0000      -0.616556       -16.7773
   7   1.0000      -0.595789       -16.2123
   8   1.0000      -0.565263       -15.3816
   9   1.0000      -0.535691       -14.5769
  10   1.0000      -0.524098       -14.2614
  11   1.0000      -0.484676       -13.1887
  12   1.0000      -0.432550       -11.7703
  13   1.0000      -0.406499       -11.0614
  14   1.0000      -0.324074        -8.8185
  15   0.0000       0.081963         2.2303
  16   0.0000       0.096201         2.6178
  17   0.0000       0.105273         2.8646
  18   0.0000       0.112626         3.0647
  19   0.0000       0.134749         3.6667

                 SPIN DOWN ORBITALS
  NO   OCC          E(Eh)            E(eV)
   0   1.0000      -1.253068       -34.0977
   1   1.0000      -1.158588       -31.5268
   2   1.0000      -0.916056       -24.9272
   3   1.0000      -0.786135       -21.3918
   4   1.0000      -0.704116       -19.1600
   5   1.0000      -0.667058       -18.1516
   6   1.0000      -0.613314       -16.6891
   7   1.0000      -0.592956       -16.1352
   8   1.0000      -0.557507       -15.1705
   9   1.0000      -0.525860       -14.3094
  10   1.0000      -0.517031       -14.0691
  11   1.0000      -0.479173       -13.0389
  12   1.0000      -0.430101       -11.7036
  13   1.0000      -0.406231       -11.0541
  14   0.0000       0.017185         0.4676
  15   0.0000       0.082609         2.2479
  16   0.0000       0.097774         2.6606
  17   0.0000       0.105822         2.8796
  18   0.0000       0.117139         3.1875

MULLIKEN ATOMIC CHARGES AND SPIN POPULATIONS
--------------------------------------------
   0 C :   -0.065335    1.025103
   1 C :    0.093823   -0.063833
   2 C :    0.302130   -0.001220
   3 O :   -0.259797    0.002437
   4 O :   -0.319961    0.001341
   5 H :    0.049700   -0.018821
   6 H :    0.045442   -0.017878
   7 H :    0.064757    0.035451
   8 H :    0.065912    0.037350
   9 H :    0.023327    0.000072
Sum of atomic charges         :   -0.0000000

LOEWDIN ATOMIC CHARGES AND SPIN POPULATIONS
-------------------------------------------
   0 C :    0.002888    0.813888
   1 C :   -0.052947    0.044321
   2 C :   -0.026790   -0.000427
   3 O :   -0.012028   -0.001060
   4 O :   -0.132738    0.002110
   5 H :    0.023607    0.041095
   6 H :    0.024450    0.039739
   7 H :    0.062720    0.029351
   8 H :    0.056699    0.030958
   9 H :    0.054139    0.000026

  Mayer bond orders larger than 0.100000
B(  0-C ,  1-C ) :   1.0518 B(  0-C ,  5-H ) :   1.0157 B(  0-C ,  6-H ) :   1.0176
B(  1-C ,  3-O ) :   0.8764 B(  1-C ,  7-H ) :   0.9899 B(  1-C ,  8-H ) :   0.9774
B(  2-C ,  3-O ) :   1.1571 B(  2-C ,  4-O ) :   1.9320 B(  2-C ,  9-H ) :   1.0300

Dispersion correction           -0.007347183
FINAL SINGLE POINT ENERGY       -52.149299724446

DIPOLE MOMENT
-------------

Method             : SCF
Type of density    : Electron Density
Multiplicity       :   2
Irrep              :   0
Energy             :   -52.1419525415748240 Eh
Relativity type    :
Basis              : AO
                                X                 Y                 Z
Electronic contribution:      0.018195149       3.199541004      -0.054635422
Nuclear contribution   :      0.608705381      -3.634389756      -0.020748864
                        -----------------------------------------
Total Dipole Moment    :      0.626900529      -0.434848752      -0.075384285
                        -----------------------------------------
Magnitude (a.u.)       :      0.766668443
Magnitude (Debye)      :      1.948716315

Rotational constants in cm-1:             0.359802             0.131344             0.111457
Rotational constants in MHz :         10786.581362          3937.605687          3341.390561

                             ****ORCA TERMINATED NORMALLY****
TOTAL RUN TIME: 0 days 0 hours 1 minutes 6 seconds 665 msec
