                         Program Version 6.0.1  -  RELEASE   -
|  1>  ! DEFGRID2
|  2>  ! wB97X-3c
|  3>  ! SP
|  4>  %pal
|  5> nprocs 1
|  6>  end
|  7>  %maxcore 8000
|  8>  *xyzfile            0             2  fragment.xyz
|  9>
| 10>                          ****END OF INPUT****

CARTESIAN COORDINATES (ANGSTROEM)
---------------------------------
  C     -2.178491   -3.224163   -0.035514
  C     -0.805392   -2.732392    0.214770
  O     -0.501590   -1.441581   -0.101574
  H     -2.426888   -3.230111   -1.104074
  H     -2.288576   -4.240565    0.336965
  H     -2.925895   -2.607376    0.470119
  H      0.052142   -3.382498    0.115445
  H     -1.290778   -0.898771   -0.061859

 Total Charge           Charge          ....    0
 Multiplicity           Mult            ....    2
 Number of Electrons    NEL             ....   19
 Basis Dimension        Dim             ....   64

ORBITAL ENERGIES
----------------
                 SPIN UP ORBITALS
  NO   OCC          E(Eh)            E(eV)
   0   1.0000      -1.181184       -32.1416
   1   1.0000      -0.890465       -24.2308
   2   1.0000      -0.762081       -20.7373
   3   1.0000      -0.611508       -16.6400
   4   1.0000      -0.589248       -16.0342
   5   1.0000      -0.555910       -15.1271
   6   1.0000      -0.496510       -13.5107
   7   1.0000      -0.492437       -13.3999
   8   1.0000      -0.455676       -12.3996
   9   1.0000      -0.269109        -7.3228
  10   0.0000       0.078030         2.1233
  11   0.0000       0.106917         2.9094
  12   0.0000       0.122090         3.3222
  13   0.0000       0.142174         3.8688
  14   0.0000       0.159680         4.3451

                 SPIN DOWN ORBITALS
  NO   OCC          E(Eh)            E(eV)
   0   1.0000      -1.169642       -31.8276
   1   1.0000      -0.878517       -23.9057
   2   1.0000      -0.745798       -20.2942
   3   1.0000      -0.598010       -16.2727
   4   1.0000      -0.581644       -15.8273
   5   1.0000      -0.532965       -14.5027
   6   1.0000      -0.492609       -13.4046
   7   1.0000      -0.467392       -12.7184
   8   1.0000      -0.443448       -12.0668
   9   0.0000       0.060692         1.6515
  10   0.0000       0.080571         2.1925
  11   0.0000       0.109336         2.9752
  12   0.0000       0.124832         3.3969
  13   0.0000       0.145900         3.9701

MULLIKEN ATOMIC CHARGES AND SPIN POPULATIONS
--------------------------------------------
   0 C :   -0.088132   -0.050281
   1 C :    0.000071    0.892182
   2 O :   -0.216035    0.098092
   3 H :    0.039329    0.061832
   4 H :    0.047107    0.001558
   5 H :    0.037113    0.012317
   6 H :    0.027669   -0.013103
   7 H :    0.152878   -0.002598
Sum of atomic charges         :   -0.0000000

LOEWDIN ATOMIC CHARGES AND SPIN POPULATIONS
-------------------------------------------
   0 C :   -0.143449    0.038961
   1 C :   -0.034966    0.716361
   2 O :   -0.029963    0.140410
   3 H :    0.042309    0.045007
   4 H :    0.057498   -0.000247
   5 H :    0.045154    0.012090
   6 H :    0.020388    0.041365
   7 H :    0.043030    0.006053

  Mayer bond orders larger than 0.100000
B(  0-C ,  1-C ) :   1.0457 B(  0-C ,  3-H ) :   0.9683 B(  0-C ,  4-H ) :   0.9894
B(  0-C ,  5-H ) :   0.9816 B(  1-C ,  2-O ) :   1.0832 B(  1-C ,  6-H ) :   1.0320
B(  2-O ,  7-H ) :   1.0543

Dispersion correction           -0.004102250
FINAL SINGLE POINT ENERGY       -30.406626575264

DIPOLE MOMENT
-------------

Method             : SCF
Type of density    : Electron Density
Multiplicity       :   2
Irrep              :   0
Energy             :   -30.4025243255944488 Eh
Relativity type    :
Basis              : AO
                                X                 Y                 Z
Electronic contribution:      2.263631479       1.506616885       0.409817540
Nuclear contribution   :     -2.939322461      -1.588185497      -0.481853846
                        -----------------------------------------
Total Dipole Moment    :     -0.675690982      -0.081568612      -0.072036307
                        -----------------------------------------
Magnitude (a.u.)       :      0.684398255
Magnitude (Debye)      :      1.739602115

Rotational constants in cm-1:             1.484168             0.319435             0.278625
Rotational constants in MHz :         44494.226005          9576.421880          8352.955600

                             ****ORCA TERMINATED NORMALLY****
TOTAL RUN TIME: 0 days 0 hours 0 minutes 31 seconds 841 msec
