                         Program Version 6.0.1  -  RELEASE   -
|  1>  ! DEFGRID2
|  2>  ! wB97X-3c
|  3>  ! SP
|  4>  %pal
|  5> nprocs 1
|  6>  end
|  7>  %maxcore 8000
|  8>  *xyzfile            0             2  fragment.xyz
|  9>
| 10>                          ****END OF INPUT****

CARTESIAN COORDINATES (ANGSTROEM)
---------------------------------
  C     -0.741259   -0.881019    0.038950
  C      0.787405   -0.888239    0.032228
  C      0.033083    1.228662    0.032608
  O      1.163255    0.476357    0.045049
  O     -1.104115    0.486802    0.012654
  H     -1.154436   -1.338124    0.936978
  H     -1.162850   -1.372350   -0.836354
  H      1.196628   -1.357462   -0.861256
  H      1.204246   -1.375690    0.912070
  H      0.037239    2.298247    0.036431

 Total Charge           Charge          ....    0
 Multiplicity           Mult            ....    2
 Number of Electrons    NEL             ....   29
 Basis Dimension        Dim             ....   90

ORBITAL ENERGIES
----------------
                 SPIN UP ORBITALS
  NO   OCC          E(Eh)            E(eV)
   0   1.0000      -1.251427       -34.0531
   1   1.0000      -1.152212       -31.3533
   2   1.0000      -0.921824       -25.0841
   3   1.0000      -0.786479       -21.4012
   4   1.0000      -0.756020       -20.5723
   5   1.0000      -0.655690       -17.8422
   6   1.0000      -0.647313       -17.6143
   7   1.0000      -0.592017       -16.1096
   8   1.0000      -0.551098       -14.9961
   9   1.0000      -0.548319       -14.9205
  10   1.0000      -0.511746       -13.9253
  11   1.0000      -0.480970       -13.0879
  12   1.0000      -0.474819       -12.9205
  13   1.0000      -0.407871       -11.0987
  14   1.0000      -0.229364        -6.2413
  15   0.0000       0.081825         2.2266
  16   0.0000       0.108848         2.9619
  17   0.0000       0.118292         3.2189
  18   0.0000       0.121627         3.3096
  19   0.0000       0.149987         4.0813

                 SPIN DOWN ORBITALS
  NO   OCC          E(Eh)            E(eV)
   0   1.0000      -1.241707       -33.7886
   1   1.0000      -1.143919       -31.1276
   2   1.0000      -0.915060       -24.9001
   3   1.0000      -0.784127       -21.3372
   4   1.0000      -0.736007       -20.0278
   5   1.0000      -0.650123       -17.6907
   6   1.0000      -0.637906       -17.3583
   7   1.0000      -0.588001       -16.0003
   8   1.0000      -0.543507       -14.7896
   9   1.0000      -0.537652       -14.6302
  10   1.0000      -0.477757       -13.0004
  11   1.0000      -0.476613       -12.9693
  12   1.0000      -0.471014       -12.8169
  13   1.0000      -0.386695       -10.5225
  14   0.0000       0.082377         2.2416
  15   0.0000       0.089246         2.4285
  16   0.0000       0.120702         3.2845
  17   0.0000       0.121846         3.3156
  18   0.0000       0.122084         3.3221

MULLIKEN ATOMIC CHARGES AND SPIN POPULATIONS
--------------------------------------------
   0 C :    0.118067   -0.005207
   1 C :    0.118097   -0.005234
   2 C :    0.139582    0.883314
   3 O :   -0.297915    0.063925
   4 O :   -0.298073    0.063815
   5 H :    0.046894    0.005243
   6 H :    0.048350    0.004279
   7 H :    0.047186    0.004817
   8 H :    0.048044    0.004704
   9 H :    0.029769   -0.019657
Sum of atomic charges         :   -0.0000000

LOEWDIN ATOMIC CHARGES AND SPIN POPULATIONS
-------------------------------------------
   0 C :   -0.023380    0.000748
   1 C :   -0.023289    0.000724
   2 C :   -0.055615    0.693968
   3 O :   -0.061055    0.124023
   4 O :   -0.061146    0.123892
   5 H :    0.050081    0.002866
   6 H :    0.051184    0.002219
   7 H :    0.050290    0.002606
   8 H :    0.050988    0.002476
   9 H :    0.021941    0.046476

  Mayer bond orders larger than 0.100000
B(  0-C ,  1-C ) :   0.9745 B(  0-C ,  4-O ) :   0.9367 B(  0-C ,  5-H ) :   1.0018
B(  0-C ,  6-H ) :   1.0024 B(  1-C ,  3-O ) :   0.9366 B(  1-C ,  7-H ) :   1.0020
B(  1-C ,  8-H ) :   1.0022 B(  2-C ,  3-O ) :   1.0651 B(  2-C ,  4-O ) :   1.0649
B(  2-C ,  9-H ) :   1.0561

Dispersion correction           -0.007923483
FINAL SINGLE POINT ENERGY       -52.123766843008

DIPOLE MOMENT
-------------

Method             : SCF
Type of density    : Electron Density
Multiplicity       :   2
Irrep              :   0
Energy             :   -52.1158433600844688 Eh
Relativity type    :
Basis              : AO
                                X                 Y                 Z
Electronic contribution:      0.013039794       2.563053674      -0.018765655
Nuclear contribution   :     -0.016898520      -3.418936440       0.024473158
                        -----------------------------------------
Total Dipole Moment    :     -0.003858727      -0.855882766       0.005707503
                        -----------------------------------------
Magnitude (a.u.)       :      0.855910494
Magnitude (Debye)      :      2.175551582

Rotational constants in cm-1:             0.281573             0.263608             0.143508
Rotational constants in MHz :          8441.344194          7902.765069          4302.273187

                             ****ORCA TERMINATED NORMALLY****
TOTAL RUN TIME: 0 days 0 hours 1 minutes 10 seconds 561 msec
