                         Program Version 6.0.1  -  RELEASE   -
|  1>  ! DEFGRID2
|  2>  ! wB97X-3c
|  3>  ! SP
|  4>  %pal
|  5> nprocs 1
|  6>  end
|  7>  %maxcore 8000
|  8>  *xyzfile            1             1  fragment.xyz
|  9>
| 10>                          ****END OF INPUT****

CARTESIAN COORDINATES (ANGSTROEM)
---------------------------------
  C      1.913299   -0.168519    0.196838
  C      0.407396    1.711866   -0.043351
  O      1.838379    1.025118   -0.094486
  O     -0.494117    1.066673    0.249704
  H      2.899653   -0.629111    0.159467
  H      1.015242   -0.724751    0.479699
  H      0.593880    2.749299   -0.320302

 Total Charge           Charge          ....    1
 Multiplicity           Mult            ....    1
 Number of Electrons    NEL             ....   22
 Basis Dimension        Dim             ....   67

ORBITAL ENERGIES
----------------

  NO   OCC          E(Eh)            E(eV)
   0   2.0000      -1.541347       -41.9422
   1   2.0000      -1.481971       -40.3265
   2   2.0000      -1.113423       -30.2978
   3   2.0000      -0.994198       -27.0535
   4   2.0000      -0.947307       -25.7775
   5   2.0000      -0.886596       -24.1255
   6   2.0000      -0.856368       -23.3030
   7   2.0000      -0.850753       -23.1502
   8   2.0000      -0.782496       -21.2928
   9   2.0000      -0.764251       -20.7963
  10   2.0000      -0.685822       -18.6622
  11   0.0000      -0.261866        -7.1257
  12   0.0000      -0.170154        -4.6301
  13   0.0000      -0.098112        -2.6698
  14   0.0000      -0.085695        -2.3319
  15   0.0000      -0.060748        -1.6530

MULLIKEN ATOMIC CHARGES
-----------------------
   0 C :    0.369682
   1 C :    0.420394
   2 O :   -0.108806
   3 O :   -0.050225
   4 H :    0.125563
   5 H :    0.126878
   6 H :    0.116514
Sum of atomic charges:    1.0000000

LOEWDIN ATOMIC CHARGES
----------------------
   0 C :    0.299933
   1 C :    0.215364
   2 O :    0.088962
   3 O :    0.081281
   4 H :    0.112387
   5 H :    0.093972
   6 H :    0.108101

  Mayer bond orders larger than 0.100000
B(  0-C ,  2-O ) :   1.6645 B(  0-C ,  4-H ) :   0.9902 B(  0-C ,  5-H ) :   0.9852
B(  1-C ,  2-O ) :   0.6228 B(  1-C ,  3-O ) :   2.2220 B(  1-C ,  6-H ) :   1.0096

Dispersion correction           -0.003462645
FINAL SINGLE POINT ENERGY       -44.946688242724

DIPOLE MOMENT
-------------

Method             : SCF
Type of density    : Electron Density
Multiplicity       :   1
Irrep              :   0
Energy             :   -44.9432255977124839 Eh
Relativity type    :
Basis              : AO
                                X                 Y                 Z
Electronic contribution:     -0.563865716       0.841082696      -0.133664962
Nuclear contribution   :      1.608088113      -1.296124542       0.100965957
                        -----------------------------------------
Total Dipole Moment    :      1.044222397      -0.455041846      -0.032699005
                        -----------------------------------------
Magnitude (a.u.)       :      1.139531799
Magnitude (Debye)      :      2.896459647

Rotational constants in cm-1:             0.829142             0.219960             0.173844
Rotational constants in MHz :         24857.043101          6594.238799          5211.714968

                             ****ORCA TERMINATED NORMALLY****
TOTAL RUN TIME: 0 days 0 hours 0 minutes 27 seconds 417 msec
