                         Program Version 6.0.1  -  RELEASE   -
|  1>  ! DEFGRID2
|  2>  ! wB97X-3c
|  3>  ! SP
|  4>  %pal
|  5> nprocs 1
|  6>  end
|  7>  %maxcore 8000
|  8>  *xyzfile            0             2  fragment.xyz
|  9>
| 10>                          ****END OF INPUT****

CARTESIAN COORDINATES (ANGSTROEM)
---------------------------------
  C      1.393280   -4.794205   -0.435566
  C      3.259619   -3.160763    0.235569
  O      2.785023   -3.952157   -0.790127
  H      0.676201   -3.998234   -0.662382
  H      3.398634   -4.639457   -1.058623
  H      1.494086   -4.825372    0.658322
  H      3.810030   -3.667170    1.016452
  H      2.607571   -2.326433    0.435296

 Total Charge           Charge          ....    0
 Multiplicity           Mult            ....    2
 Number of Electrons    NEL             ....   19
 Basis Dimension        Dim             ....   64

ORBITAL ENERGIES
----------------
                 SPIN UP ORBITALS
  NO   OCC          E(Eh)            E(eV)
   0   1.0000      -1.261011       -34.3138
   1   1.0000      -0.867076       -23.5943
   2   1.0000      -0.798876       -21.7385
   3   1.0000      -0.698172       -18.9982
   4   1.0000      -0.626127       -17.0378
   5   1.0000      -0.584692       -15.9103
   6   1.0000      -0.532270       -14.4838
   7   1.0000      -0.460137       -12.5210
   8   1.0000      -0.364485        -9.9182
   9   1.0000      -0.291160        -7.9229
  10   0.0000       0.058244         1.5849
  11   0.0000       0.093200         2.5361
  12   0.0000       0.119469         3.2509
  13   0.0000       0.134628         3.6634
  14   0.0000       0.158084         4.3017

                 SPIN DOWN ORBITALS
  NO   OCC          E(Eh)            E(eV)
   0   1.0000      -1.255217       -34.1562
   1   1.0000      -0.842453       -22.9243
   2   1.0000      -0.791398       -21.5350
   3   1.0000      -0.686094       -18.6696
   4   1.0000      -0.617602       -16.8058
   5   1.0000      -0.568555       -15.4712
   6   1.0000      -0.524194       -14.2640
   7   1.0000      -0.456897       -12.4328
   8   1.0000      -0.291429        -7.9302
   9   0.0000      -0.009261        -0.2520
  10   0.0000       0.060731         1.6526
  11   0.0000       0.098865         2.6903
  12   0.0000       0.122023         3.3204
  13   0.0000       0.141324         3.8456

MULLIKEN ATOMIC CHARGES AND SPIN POPULATIONS
--------------------------------------------
   0 C :   -0.309965    0.136238
   1 C :   -0.001708    0.897127
   2 O :   -0.083110    0.004870
   3 H :    0.040957   -0.002659
   4 H :    0.207193   -0.000965
   5 H :    0.023967   -0.008424
   6 H :    0.061031   -0.009608
   7 H :    0.061636   -0.016579
Sum of atomic charges         :    0.0000000

LOEWDIN ATOMIC CHARGES AND SPIN POPULATIONS
-------------------------------------------
   0 C :   -0.242676    0.128331
   1 C :    0.009258    0.739061
   2 O :    0.129707    0.054030
   3 H :   -0.014016    0.007098
   4 H :    0.089475    0.000135
   5 H :   -0.022995    0.001842
   6 H :    0.020899    0.038244
   7 H :    0.030349    0.031259

  Mayer bond orders larger than 0.100000
B(  0-C ,  1-C ) :   0.1513 B(  0-C ,  2-O ) :   0.5018 B(  0-C ,  3-H ) :   1.0334
B(  0-C ,  5-H ) :   1.0211 B(  1-C ,  2-O ) :   0.9638 B(  1-C ,  6-H ) :   1.0145
B(  1-C ,  7-H ) :   1.0172 B(  2-O ,  4-H ) :   1.0063

Dispersion correction           -0.004271879
FINAL SINGLE POINT ENERGY       -30.238740016066

DIPOLE MOMENT
-------------

Method             : SCF
Type of density    : Electron Density
Multiplicity       :   2
Irrep              :   0
Energy             :   -30.2344681372160622 Eh
Relativity type    :
Basis              : AO
                                X                 Y                 Z
Electronic contribution:      1.308304670       0.195711930      -1.492785664
Nuclear contribution   :     -0.261521492       0.432331891       1.938889130
                        -----------------------------------------
Total Dipole Moment    :      1.046783178       0.628043821       0.446103466
                        -----------------------------------------
Magnitude (a.u.)       :      1.299693181
Magnitude (Debye)      :      3.303557529

Rotational constants in cm-1:             1.187688             0.332285             0.292187
Rotational constants in MHz :         35606.004713          9961.650812          8759.545561

                             ****ORCA TERMINATED NORMALLY****
TOTAL RUN TIME: 0 days 0 hours 0 minutes 38 seconds 471 msec
