                         Program Version 6.0.1  -  RELEASE   -
|  1>  ! DEFGRID2
|  2>  ! wB97X-3c
|  3>  ! SP
|  4>  %pal
|  5> nprocs 1
|  6>  end
|  7>  %maxcore 8000
|  8>  *xyzfile            1             1  fragment.xyz
|  9>
| 10>                          ****END OF INPUT****

CARTESIAN COORDINATES (ANGSTROEM)
---------------------------------
  C      0.509970    2.439738   -0.132306
  O      1.565171    2.170822   -0.387565
  O     -0.648358    2.625521    0.169158
  H     -1.061390    3.515639    0.112292

 Total Charge           Charge          ....    1
 Multiplicity           Mult            ....    1
 Number of Electrons    NEL             ....   16
 Basis Dimension        Dim             ....   44

ORBITAL ENERGIES
----------------

  NO   OCC          E(Eh)            E(eV)
   0   2.0000      -1.641025       -44.6546
   1   2.0000      -1.591258       -43.3003
   2   2.0000      -1.156189       -31.4615
   3   2.0000      -0.976110       -26.5613
   4   2.0000      -0.964888       -26.2559
   5   2.0000      -0.949121       -25.8269
   6   2.0000      -0.846733       -23.0408
   7   2.0000      -0.820789       -22.3348
   8   0.0000      -0.223066        -6.0699
   9   0.0000      -0.190655        -5.1880
  10   0.0000      -0.187976        -5.1151
  11   0.0000      -0.063130        -1.7179
  12   0.0000       0.062711         1.7065

MULLIKEN ATOMIC CHARGES
-----------------------
   0 C :    0.475566
   1 O :    0.132582
   2 O :    0.129256
   3 H :    0.262596
Sum of atomic charges:    1.0000000

LOEWDIN ATOMIC CHARGES
----------------------
   0 C :    0.270167
   1 O :    0.244482
   2 O :    0.285673
   3 H :    0.199678

  Mayer bond orders larger than 0.100000
B(  0-C ,  1-O ) :   2.4416 B(  0-C ,  2-O ) :   1.6009 B(  1-O ,  2-O ) :   0.1638
B(  2-O ,  3-H ) :   0.9486

Dispersion correction           -0.001262341
FINAL SINGLE POINT ENERGY       -38.044179831897

DIPOLE MOMENT
-------------

Method             : SCF
Type of density    : Electron Density
Multiplicity       :   1
Irrep              :   0
Energy             :   -38.0429174912639496 Eh
Relativity type    :
Basis              : AO
                                X                 Y                 Z
Electronic contribution:      0.794516772      -0.310066752      -0.169902481
Nuclear contribution   :     -1.830961187       1.265787368       0.282626480
                        -----------------------------------------
Total Dipole Moment    :     -1.036444416       0.955720616       0.112723999
                        -----------------------------------------
Magnitude (a.u.)       :      1.414328683
Magnitude (Debye)      :      3.594937817

Rotational constants in cm-1:            27.515211             0.363828             0.359080
Rotational constants in MHz :        824885.264901         10907.286057         10764.943727

                             ****ORCA TERMINATED NORMALLY****
TOTAL RUN TIME: 0 days 0 hours 0 minutes 9 seconds 344 msec
