                         Program Version 6.0.1  -  RELEASE   -
|  1>  ! DEFGRID2
|  2>  ! wB97X-3c
|  3>  ! SP
|  4>  %pal
|  5> nprocs 8
|  6>  end
|  7>  %maxcore 8000
|  8>  *xyzfile            0             1  in.xyz
|  9>
| 10>                          ****END OF INPUT****

CARTESIAN COORDINATES (ANGSTROEM)
---------------------------------
  C     -1.792351    0.616506   -0.368606
  C     -0.822177   -0.432000    0.609926
  C      1.414468   -0.173364   -0.277305
  O      0.097826   -0.945135   -0.206159
  O      1.520867    0.863735    0.246524
  H     -2.147323   -0.006165   -1.185786
  H     -2.556366    0.903213    0.353772
  H     -1.116577    1.418098   -0.657147
  H     -1.561638   -1.186655    0.884179
  H     -0.446673    0.254018    1.373775
  H      2.079390   -0.798158   -0.875809

 Total Charge           Charge          ....    0
 Multiplicity           Mult            ....    1
 Number of Electrons    NEL             ....   30
 Basis Dimension        Dim             ....   95

ORBITAL ENERGIES
----------------

  NO   OCC          E(Eh)            E(eV)
   0   2.0000      -1.250568       -34.0297
   1   2.0000      -1.168869       -31.8065
   2   2.0000      -0.866690       -23.5838
   3   2.0000      -0.794912       -21.6307
   4   2.0000      -0.711295       -19.3553
   5   2.0000      -0.663474       -18.0541
   6   2.0000      -0.617195       -16.7947
   7   2.0000      -0.583059       -15.8658
   8   2.0000      -0.573346       -15.6015
   9   2.0000      -0.521735       -14.1971
  10   2.0000      -0.500109       -13.6087
  11   2.0000      -0.496733       -13.5168
  12   2.0000      -0.470626       -12.8064
  13   2.0000      -0.420162       -11.4332
  14   2.0000      -0.359870        -9.7925
  15   0.0000       0.052153         1.4192
  16   0.0000       0.092865         2.5270
  17   0.0000       0.104083         2.8322
  18   0.0000       0.128282         3.4907
  19   0.0000       0.132031         3.5928

MULLIKEN ATOMIC CHARGES
-----------------------
   0 C :   -0.104604
   1 C :    0.049209
   2 C :    0.344401
   3 O :   -0.342083
   4 O :   -0.214288
   5 H :    0.041535
   6 H :    0.029753
   7 H :    0.045382
   8 H :    0.050298
   9 H :    0.049395
  10 H :    0.051003
Sum of atomic charges:   -0.0000000

LOEWDIN ATOMIC CHARGES
----------------------
   0 C :   -0.092153
   1 C :   -0.065888
   2 C :    0.089758
   3 O :   -0.095427
   4 O :   -0.061451
   5 H :    0.030468
   6 H :    0.030061
   7 H :    0.028977
   8 H :    0.043923
   9 H :    0.031132
  10 H :    0.060600

  Mayer bond orders larger than 0.100000
B(  0-C ,  1-C ) :   0.9534 B(  0-C ,  5-H ) :   1.0001 B(  0-C ,  6-H ) :   1.0060
B(  0-C ,  7-H ) :   1.0021 B(  1-C ,  3-O ) :   0.9661 B(  1-C ,  8-H ) :   1.0113
B(  1-C ,  9-H ) :   1.0006 B(  2-C ,  3-O ) :   0.9719 B(  2-C ,  4-O ) :   2.0368
B(  2-C , 10-H ) :   1.0161

Dispersion correction           -0.007782161
FINAL SINGLE POINT ENERGY       -52.778652901565

DIPOLE MOMENT
-------------

Method             : SCF
Type of density    : Electron Density
Multiplicity       :   1
Irrep              :   0
Energy             :   -52.7708707409275277 Eh
Relativity type    :
Basis              : AO
                                X                 Y                 Z
Electronic contribution:      6.082379167      -1.085346648      -0.023605322
Nuclear contribution   :     -5.935450091       0.709001090      -0.097465234
                        -----------------------------------------
Total Dipole Moment    :      0.146929076      -0.376345557      -0.121070555
                        -----------------------------------------
Magnitude (a.u.)       :      0.421760846
Magnitude (Debye)      :      1.072030875

Rotational constants in cm-1:             0.322303             0.119357             0.101942
Rotational constants in MHz :          9662.391748          3578.242431          3056.153161

                             ****ORCA TERMINATED NORMALLY****
TOTAL RUN TIME: 0 days 0 hours 0 minutes 13 seconds 375 msec
