                         Program Version 6.0.1  -  RELEASE   -
|  1>  ! DEFGRID2
|  2>  ! wB97X-3c
|  3>  ! SP
|  4>  %pal
|  5> nprocs 1
|  6>  end
|  7>  %maxcore 8000
|  8>  *xyzfile            1             1  fragment.xyz
|  9>
| 10>                          ****END OF INPUT****

CARTESIAN COORDINATES (ANGSTROEM)
---------------------------------
  C     -1.526298    4.245957   -0.240253
  O     -2.137601    3.615738    0.423808
  H     -0.916592    4.874275   -0.903835

 Total Charge           Charge          ....    1
 Multiplicity           Mult            ....    1
 Number of Electrons    NEL             ....   10
 Basis Dimension        Dim             ....   31

ORBITAL ENERGIES
----------------

  NO   OCC          E(Eh)            E(eV)
   0   2.0000      -1.656508       -45.0759
   1   2.0000      -1.108786       -30.1716
   2   2.0000      -0.988710       -26.9042
   3   2.0000      -0.944000       -25.6876
   4   2.0000      -0.944000       -25.6875
   5   0.0000      -0.283263        -7.7080
   6   0.0000      -0.283262        -7.7079
   7   0.0000      -0.158590        -4.3155
   8   0.0000      -0.095877        -2.6089
   9   0.0000       0.100055         2.7226

MULLIKEN ATOMIC CHARGES
-----------------------
   0 C :    0.525787
   1 O :    0.260380
   2 H :    0.213833
Sum of atomic charges:    1.0000000

LOEWDIN ATOMIC CHARGES
----------------------
   0 C :    0.546962
   1 O :    0.300099
   2 H :    0.152939

  Mayer bond orders larger than 0.100000
B(  0-C ,  1-O ) :   2.6732 B(  0-C ,  2-H ) :   0.9485

Dispersion correction           -0.000529464
FINAL SINGLE POINT ENERGY       -21.959741385279

DIPOLE MOMENT
-------------

Method             : SCF
Type of density    : Electron Density
Multiplicity       :   1
Irrep              :   0
Energy             :   -21.9592119213041030 Eh
Relativity type    :
Basis              : AO
                                X                 Y                 Z
Electronic contribution:      0.112530836       0.116206694      -0.121337423
Nuclear contribution   :      0.786802916       0.810852924      -0.856174398
                        -----------------------------------------
Total Dipole Moment    :      0.899333752       0.927059618      -0.977511821
                        -----------------------------------------
Magnitude (a.u.)       :      1.619805573
Magnitude (Debye)      :      4.117218565

Rotational constants in cm-1:      18410699.496020             1.502853             1.502853
Rotational constants in MHz :  551938885541.112549         45054.413074         45054.409396

                             ****ORCA TERMINATED NORMALLY****
TOTAL RUN TIME: 0 days 0 hours 0 minutes 4 seconds 543 msec
