                         Program Version 6.0.1  -  RELEASE   -
|  1>  ! DEFGRID2
|  2>  ! wB97X-3c
|  3>  ! SP
|  4>  %pal
|  5> nprocs 1
|  6>  end
|  7>  %maxcore 8000
|  8>  *xyzfile            0             1  fragment.xyz
|  9>
| 10>                          ****END OF INPUT****

CARTESIAN COORDINATES (ANGSTROEM)
---------------------------------
  C      0.701000   -2.030269   -0.182990
  C      0.516835   -0.789456    0.616164
  C      1.617648    1.238607   -0.383880
  O      1.279968    0.134473    0.170326
  H      1.197897   -2.758883    0.459770
  H     -0.286883   -2.440980   -0.385678
  H      1.266354   -1.903515   -1.107534
  H      2.641895    1.414365   -0.006103

 Total Charge           Charge          ....    0
 Multiplicity           Mult            ....    1
 Number of Electrons    NEL             ....   22
 Basis Dimension        Dim             ....   72

ORBITAL ENERGIES
----------------

  NO   OCC          E(Eh)            E(eV)
   0   2.0000      -1.309464       -35.6323
   1   2.0000      -0.987589       -26.8737
   2   2.0000      -0.870909       -23.6986
   3   2.0000      -0.670838       -18.2544
   4   2.0000      -0.642382       -17.4801
   5   2.0000      -0.627716       -17.0810
   6   2.0000      -0.588131       -16.0039
   7   2.0000      -0.542664       -14.7666
   8   2.0000      -0.519430       -14.1344
   9   2.0000      -0.345056        -9.3895
  10   2.0000      -0.342097        -9.3089
  11   0.0000       0.016201         0.4408
  12   0.0000       0.026926         0.7327
  13   0.0000       0.085127         2.3164
  14   0.0000       0.110498         3.0068
  15   0.0000       0.133410         3.6303

MULLIKEN ATOMIC CHARGES
-----------------------
   0 C :   -0.036028
   1 C :   -0.147905
   2 C :   -0.198215
   3 O :    0.168730
   4 H :    0.061114
   5 H :    0.063765
   6 H :    0.017515
   7 H :    0.071025
Sum of atomic charges:   -0.0000000

LOEWDIN ATOMIC CHARGES
----------------------
   0 C :   -0.139695
   1 C :   -0.039313
   2 C :   -0.091084
   3 O :    0.113518
   4 H :    0.062582
   5 H :    0.060599
   6 H :    0.028853
   7 H :    0.004539

  Mayer bond orders larger than 0.100000
B(  0-C ,  1-C ) :   1.0099 B(  0-C ,  4-H ) :   0.9577 B(  0-C ,  5-H ) :   0.9697
B(  0-C ,  6-H ) :   0.9835 B(  1-C ,  2-C ) :   0.2349 B(  1-C ,  3-O ) :   1.2618
B(  2-C ,  3-O ) :   1.3085 B(  2-C ,  7-H ) :   1.0085

Dispersion correction           -0.004924775
FINAL SINGLE POINT ENERGY       -35.312902972962

DIPOLE MOMENT
-------------

Method             : SCF
Type of density    : Electron Density
Multiplicity       :   1
Irrep              :   0
Energy             :   -35.3079781984157250 Eh
Relativity type    :
Basis              : AO
                                X                 Y                 Z
Electronic contribution:     -0.351029036       3.583969009       1.216911832
Nuclear contribution   :      1.010379032      -4.437934588      -1.343383137
                        -----------------------------------------
Total Dipole Moment    :      0.659349996      -0.853965579      -0.126471305
                        -----------------------------------------
Magnitude (a.u.)       :      1.086275572
Magnitude (Debye)      :      2.761093075

Rotational constants in cm-1:             1.285869             0.171385             0.159181
Rotational constants in MHz :         38549.369230          5137.997423          4772.124782

                             ****ORCA TERMINATED NORMALLY****
TOTAL RUN TIME: 0 days 0 hours 0 minutes 41 seconds 25 msec
