                         Program Version 6.0.1  -  RELEASE   -
|  1>  ! DEFGRID2
|  2>  ! wB97X-3c
|  3>  ! SP
|  4>  %pal
|  5> nprocs 4
|  6>  end
|  7>  %maxcore 8000
|  8>  *xyzfile            1             2  isomer.xyz
|  9>
| 10>                          ****END OF INPUT****

CARTESIAN COORDINATES (ANGSTROEM)
---------------------------------
  C      0.593712   -2.220488    0.231388
  C     -0.172909   -1.025156   -0.108112
  C      0.121905    1.306716   -0.142788
  O      0.595312    0.144906   -0.247308
  O     -1.070268    1.594608    0.169971
  H      1.187371   -2.075718    1.132954
  H     -0.090148   -3.050980    0.382317
  H      1.276486   -2.481856   -0.582987
  H     -1.085519   -1.010038   -0.692009
  H     -1.639819    0.844883    0.412975
  H      0.797881    2.134544   -0.334079

 Total Charge           Charge          ....    1
 Multiplicity           Mult            ....    2
 Number of Electrons    NEL             ....   29
 Basis Dimension        Dim             ....   95

ORBITAL ENERGIES
----------------
                 SPIN UP ORBITALS
  NO   OCC          E(Eh)            E(eV)
   0   1.0000      -1.553540       -42.2740
   1   1.0000      -1.467335       -39.9282
   2   1.0000      -1.165366       -31.7112
   3   1.0000      -1.065329       -28.9891
   4   1.0000      -1.008787       -27.4505
   5   1.0000      -0.930373       -25.3167
   6   1.0000      -0.902629       -24.5618
   7   1.0000      -0.868049       -23.6208
   8   1.0000      -0.783532       -21.3210
   9   1.0000      -0.769967       -20.9519
  10   1.0000      -0.762783       -20.7564
  11   1.0000      -0.709610       -19.3095
  12   1.0000      -0.708326       -19.2745
  13   1.0000      -0.684316       -18.6212
  14   1.0000      -0.529171       -14.3995
  15   0.0000      -0.189640        -5.1604
  16   0.0000      -0.105544        -2.8720
  17   0.0000      -0.067701        -1.8422
  18   0.0000      -0.041515        -1.1297
  19   0.0000      -0.029524        -0.8034

                 SPIN DOWN ORBITALS
  NO   OCC          E(Eh)            E(eV)
   0   1.0000      -1.550762       -42.1984
   1   1.0000      -1.465122       -39.8680
   2   1.0000      -1.147735       -31.2315
   3   1.0000      -1.061138       -28.8750
   4   1.0000      -1.004902       -27.3448
   5   1.0000      -0.923626       -25.1331
   6   1.0000      -0.891985       -24.2722
   7   1.0000      -0.854748       -23.2589
   8   1.0000      -0.779463       -21.2103
   9   1.0000      -0.759340       -20.6627
  10   1.0000      -0.754786       -20.5388
  11   1.0000      -0.703543       -19.1444
  12   1.0000      -0.693120       -18.8608
  13   1.0000      -0.681033       -18.5319
  14   0.0000      -0.218808        -5.9541
  15   0.0000      -0.158726        -4.3192
  16   0.0000      -0.099217        -2.6998
  17   0.0000      -0.067115        -1.8263
  18   0.0000      -0.040043        -1.0896

MULLIKEN ATOMIC CHARGES AND SPIN POPULATIONS
--------------------------------------------
   0 C :   -0.013291   -0.048185
   1 C :   -0.000724    0.910845
   2 C :    0.371482    0.082770
   3 O :   -0.029035   -0.040474
   4 O :    0.007783    0.024125
   5 H :    0.082001    0.022350
   6 H :    0.085892    0.002358
   7 H :    0.090371    0.060194
   8 H :    0.087002   -0.012377
   9 H :    0.214374    0.001853
  10 H :    0.104146   -0.003457
Sum of atomic charges         :    1.0000000

LOEWDIN ATOMIC CHARGES AND SPIN POPULATIONS
-------------------------------------------
   0 C :   -0.083449    0.042247
   1 C :    0.076723    0.729721
   2 C :    0.164461    0.077670
   3 O :    0.131658    0.011532
   4 O :    0.178146    0.025915
   5 H :    0.077703    0.017036
   6 H :    0.084435    0.000478
   7 H :    0.083357    0.044844
   8 H :    0.046683    0.037806
   9 H :    0.116743    0.010158
  10 H :    0.123540    0.002592

  Mayer bond orders larger than 0.100000
B(  0-C ,  1-C ) :   1.0814 B(  0-C ,  5-H ) :   0.9634 B(  0-C ,  6-H ) :   0.9650
B(  0-C ,  7-H ) :   0.9467 B(  1-C ,  3-O ) :   0.8846 B(  1-C ,  8-H ) :   1.0088
B(  2-C ,  3-O ) :   1.4162 B(  2-C ,  4-O ) :   1.4039 B(  2-C , 10-H ) :   1.0263
B(  4-O ,  9-H ) :   0.9828

Dispersion correction           -0.006507736
FINAL SINGLE POINT ENERGY       -52.464636573652

DIPOLE MOMENT
-------------

Method             : SCF
Type of density    : Electron Density
Multiplicity       :   2
Irrep              :   0
Energy             :   -52.4581288373655639 Eh
Relativity type    :
Basis              : AO
                                X                 Y                 Z
Electronic contribution:     -0.420517730       4.935762561      -0.499045713
Nuclear contribution   :      0.042890378      -4.715263128       0.458823950
                        -----------------------------------------
Total Dipole Moment    :     -0.377627353       0.220499433      -0.040221763
                        -----------------------------------------
Magnitude (a.u.)       :      0.439135751
Magnitude (Debye)      :      1.116194373

Rotational constants in cm-1:             0.591469             0.095591             0.085504
Rotational constants in MHz :         17731.783521          2865.753327          2563.335414

                             ****ORCA TERMINATED NORMALLY****
TOTAL RUN TIME: 0 days 0 hours 0 minutes 23 seconds 266 msec
