                         Program Version 6.0.1  -  RELEASE   -
|  1>  ! DEFGRID2
|  2>  ! wB97X-3c
|  3>  ! SP
|  4>  %pal
|  5> nprocs 1
|  6>  end
|  7>  %maxcore 8000
|  8>  *xyzfile            1             1  fragment.xyz
|  9>
| 10>                          ****END OF INPUT****

CARTESIAN COORDINATES (ANGSTROEM)
---------------------------------
  C     -0.578463   -6.631574   -0.556692
  C      0.303432   -6.573638    0.487992
  H     -0.222905   -6.763049   -1.573497
  H     -0.210439   -7.703998    0.088223
  H     -1.646010   -6.537277   -0.386060
  H      1.371191   -6.657254    0.313095
  H     -0.051048   -6.431255    1.503750

 Total Charge           Charge          ....    1
 Multiplicity           Mult            ....    1
 Number of Electrons    NEL             ....   12
 Basis Dimension        Dim             ....   51

ORBITAL ENERGIES
----------------

  NO   OCC          E(Eh)            E(eV)
   0   2.0000      -1.264431       -34.4069
   1   2.0000      -1.003408       -27.3041
   2   2.0000      -0.888291       -24.1716
   3   2.0000      -0.860182       -23.4067
   4   2.0000      -0.786637       -21.4055
   5   2.0000      -0.758330       -20.6352
   6   0.0000      -0.225064        -6.1243
   7   0.0000      -0.128871        -3.5067
   8   0.0000      -0.082335        -2.2405
   9   0.0000      -0.074350        -2.0232
  10   0.0000      -0.067588        -1.8392

MULLIKEN ATOMIC CHARGES
-----------------------
   0 C :    0.189078
   1 C :    0.189086
   2 H :    0.120334
   3 H :    0.139811
   4 H :    0.120543
   5 H :    0.120654
   6 H :    0.120495
Sum of atomic charges:    1.0000000

LOEWDIN ATOMIC CHARGES
----------------------
   0 C :    0.167265
   1 C :    0.167294
   2 H :    0.111802
   3 H :    0.218161
   4 H :    0.111805
   5 H :    0.111848
   6 H :    0.111825

  Mayer bond orders larger than 0.100000
B(  0-C ,  1-C ) :   1.2937 B(  0-C ,  2-H ) :   0.9817 B(  0-C ,  3-H ) :   0.5013
B(  0-C ,  4-H ) :   0.9817 B(  1-C ,  3-H ) :   0.5016 B(  1-C ,  5-H ) :   0.9816
B(  1-C ,  6-H ) :   0.9817

Dispersion correction           -0.001988228
FINAL SINGLE POINT ENERGY       -14.044864773087

DIPOLE MOMENT
-------------

Method             : SCF
Type of density    : Electron Density
Multiplicity       :   1
Irrep              :   0
Energy             :   -14.0428765448667541 Eh
Relativity type    :
Basis              : AO
                                X                 Y                 Z
Electronic contribution:      0.050488704       0.764655198      -0.082626303
Nuclear contribution   :     -0.074330953      -1.120460566       0.121673967
                        -----------------------------------------
Total Dipole Moment    :     -0.023842249      -0.355805368       0.039047664
                        -----------------------------------------
Magnitude (a.u.)       :      0.358734766
Magnitude (Debye)      :      0.911831312

Rotational constants in cm-1:             3.572492             0.905593             0.805437
Rotational constants in MHz :        107100.611888         27149.000470         24146.385049

                             ****ORCA TERMINATED NORMALLY****
TOTAL RUN TIME: 0 days 0 hours 0 minutes 16 seconds 468 msec
