                         Program Version 6.0.1  -  RELEASE   -
|  1>  ! DEFGRID2
|  2>  ! wB97X-3c
|  3>  ! SP
|  4>  %pal
|  5> nprocs 1
|  6>  end
|  7>  %maxcore 8000
|  8>  *xyzfile            1             2  fragment.xyz
|  9>
| 10>                          ****END OF INPUT****

CARTESIAN COORDINATES (ANGSTROEM)
---------------------------------
  C      0.692533   -2.145102   -0.200477
  C      0.946313   -0.912168    0.509014
  C      1.536967    1.404835   -0.263619
  O      1.415227    0.151574    0.165325
  H      1.056619   -2.985189    0.389808
  H     -0.396382   -2.241970   -0.269446
  H      1.135246   -2.118428   -1.196940
  H      2.548193    1.710791    0.046409

 Total Charge           Charge          ....    1
 Multiplicity           Mult            ....    2
 Number of Electrons    NEL             ....   21
 Basis Dimension        Dim             ....   72

ORBITAL ENERGIES
----------------
                 SPIN UP ORBITALS
  NO   OCC          E(Eh)            E(eV)
   0   1.0000      -1.586475       -43.1702
   1   1.0000      -1.251623       -34.0584
   2   1.0000      -1.137630       -30.9565
   3   1.0000      -0.924675       -25.1617
   4   1.0000      -0.917410       -24.9640
   5   1.0000      -0.882361       -24.0103
   6   1.0000      -0.848011       -23.0756
   7   1.0000      -0.771242       -20.9866
   8   1.0000      -0.765653       -20.8345
   9   1.0000      -0.620783       -16.8924
  10   1.0000      -0.598033       -16.2733
  11   0.0000      -0.236028        -6.4226
  12   0.0000      -0.223245        -6.0748
  13   0.0000      -0.087908        -2.3921
  14   0.0000      -0.057104        -1.5539
  15   0.0000      -0.032489        -0.8841

                 SPIN DOWN ORBITALS
  NO   OCC          E(Eh)            E(eV)
   0   1.0000      -1.580799       -43.0157
   1   1.0000      -1.236289       -33.6411
   2   1.0000      -1.128709       -30.7137
   3   1.0000      -0.921798       -25.0834
   4   1.0000      -0.892456       -24.2850
   5   1.0000      -0.871175       -23.7059
   6   1.0000      -0.828132       -22.5346
   7   1.0000      -0.765469       -20.8295
   8   1.0000      -0.760899       -20.7051
   9   1.0000      -0.595944       -16.2165
  10   0.0000      -0.285622        -7.7722
  11   0.0000      -0.219792        -5.9809
  12   0.0000      -0.182951        -4.9783
  13   0.0000      -0.083555        -2.2736
  14   0.0000      -0.055519        -1.5107

MULLIKEN ATOMIC CHARGES AND SPIN POPULATIONS
--------------------------------------------
   0 C :    0.038909    0.015816
   1 C :    0.119458    0.875743
   2 C :    0.053878    0.098323
   3 O :    0.276971   -0.033115
   4 H :    0.125642   -0.000935
   5 H :    0.129406    0.002172
   6 H :    0.107830    0.050744
   7 H :    0.147906   -0.008749
Sum of atomic charges         :    1.0000000

LOEWDIN ATOMIC CHARGES AND SPIN POPULATIONS
-------------------------------------------
   0 C :   -0.035298    0.069314
   1 C :    0.257212    0.745904
   2 C :    0.183470    0.095870
   3 O :    0.204873    0.043134
   4 H :    0.111049    0.002207
   5 H :    0.117589    0.004688
   6 H :    0.097851    0.039353
   7 H :    0.063254   -0.000469

  Mayer bond orders larger than 0.100000
B(  0-C ,  1-C ) :   1.0385 B(  0-C ,  4-H ) :   0.9378 B(  0-C ,  5-H ) :   0.9168
B(  0-C ,  6-H ) :   0.9456 B(  1-C ,  2-C ) :   0.1920 B(  1-C ,  3-O ) :   1.5325
B(  2-C ,  3-O ) :   1.0404 B(  2-C ,  7-H ) :   0.9654

Dispersion correction           -0.003904927
FINAL SINGLE POINT ENERGY       -34.998895144449

DIPOLE MOMENT
-------------

Method             : SCF
Type of density    : Electron Density
Multiplicity       :   2
Irrep              :   0
Energy             :   -34.9949902177529282 Eh
Relativity type    :
Basis              : AO
                                X                 Y                 Z
Electronic contribution:      0.355158956       3.632176255       1.416365049
Nuclear contribution   :     -0.062646788      -4.288870995      -1.324148766
                        -----------------------------------------
Total Dipole Moment    :      0.292512168      -0.656694740       0.092216284
                        -----------------------------------------
Magnitude (a.u.)       :      0.724786309
Magnitude (Debye)      :      1.842260390

Rotational constants in cm-1:             1.875487             0.150962             0.145868
Rotational constants in MHz :         56225.670986          4525.731488          4373.019696

                             ****ORCA TERMINATED NORMALLY****
TOTAL RUN TIME: 0 days 0 hours 1 minutes 2 seconds 763 msec
