                         Program Version 6.0.1  -  RELEASE   -
|  1> # input to generate an atomic fitting density for O
|  2> # this file is used internally by ORCA
|  3> #
|  4> # atomic ground state (Mult=3): 1s2 2s2 2p4
|  5> #
|  6> ! ROHF def2-SVP def2/J Conv LeanSCF AODIIS SOSCF NoMulliken NoLoewdin NoMayer NoPrintMOs
|  7>
|  8> %output print[p_atomdensfit] 2 end
|  9>
| 10> %scf
| 11>   guess     HCore
| 12>   maxiter    1000
| 13>   maxdisk  500000
| 14>   diismaxeq     8
| 15>   soscfstart 1e-4
| 16>   lshift  1.000000
| 17>   ignoreconv true
| 18>
| 19>   hftyp        rohf
| 20>   rohf_case    sahf
| 21>   rohf_numop   2
| 22>   rohf_norb[1] 3
| 23>   rohf_nel[1]  4
| 24>
| 25> end
| 26>
| 27> %basis
| 28>   NewECP 8
| 29>     N_core 2
| 30>     lmax f
| 31>     s 1
| 32>       1      10.4456700000     50.7710690000  2
| 33>     p 1
| 34>       1      18.0451740000     -4.9035510000  2
| 35>     d 1
| 36>       1       8.1647980000     -3.3121240000  2
| 37>     f 1
| 38>       1       1.0000000000      0.0000000000  2
| 39>   end
| 40>   NewGTO 8
| 41>     s 4
| 42>      1       3.5436418206     -0.6526382648
| 43>      2       2.7127174755      0.6578992493
| 44>      3       0.6831845251      0.6911025592
| 45>      4       0.2559767392      0.2794958786
| 46>     s 2
| 47>      1       0.2865000254      0.4848944078
| 48>      2       0.1230120195      0.5469796881
| 49>     p 4
| 50>      1      27.0038418204      0.0249381741
| 51>      2       6.7626549662      0.1490287945
| 52>      3       2.0117045986      0.4201238164
| 53>      4       0.6344283489      0.5825895835
| 54>     p 2
| 55>      1       0.1990676604      0.8673270895
| 56>      2       0.0656436220      0.1792874488
| 57>   end
| 58>   NewAuxGTO 8
| 59>     S 1
| 60>      1 1310.72 1.0
| 61>     S 1
| 62>      1  655.36 1.0
| 63>     S 1
| 64>      1  327.68 1.0
| 65>     S 1
| 66>      1  163.84 1.0
| 67>     S 1
| 68>      1   81.82 1.0
| 69>     S 1
| 70>      1   40.96 1.0
| 71>     S 1
| 72>      1   20.48 1.0
| 73>     S 1
| 74>      1   10.24 1.0
| 75>     S 1
| 76>      1    5.12 1.0
| 77>     S 1
| 78>      1    2.56 1.0
| 79>     S 1
| 80>      1    1.28 1.0
| 81>     S 1
| 82>      1    0.64 1.0
| 83>     S 1
| 84>      1    0.32 1.0
| 85>     S 1
| 86>      1    0.16 1.0
| 87>     S 1
| 88>      1    0.08 1.0
| 89>     S 1
| 90>      1    0.04 1.0
| 91>     S 1
| 92>      1    0.02 1.0
| 93>     S 1
| 94>      1    0.01 1.0
| 95>   end
| 96> end
| 97>
| 98> * xyz 0 3
| 99> 8  0.0 0.0 0.0
|100> *
|101>
|102>
|103>                          ****END OF INPUT****

CARTESIAN COORDINATES (ANGSTROEM)
---------------------------------
  O      0.000000    0.000000    0.000000

 Total Charge           Charge          ....    0
 Multiplicity           Mult            ....    3
 Number of Electrons    NEL             ....    6
 Basis Dimension        Dim             ....    8

ORBITAL ENERGIES
----------------

  NO   OCC          E(Eh)            E(eV)
   0   2.0000      -1.299782       -35.3689
   1   1.3333      -0.681104       -18.5338
   2   1.3333      -0.681104       -18.5338
   3   1.3333      -0.681104       -18.5338
   4   0.0000       0.511892        13.9293
   5   0.0000       0.498202        13.5568
   6   0.0000       0.498202        13.5568
   7   0.0000       0.498202        13.5568

FINAL SINGLE POINT ENERGY       -15.669604165999

DIPOLE MOMENT
-------------

Method             : SCF
Type of density    : Electron Density
Multiplicity       :   3
Irrep              :   0
Energy             :   -15.6696041659993206 Eh
Relativity type    :
Basis              : AO
                                X                 Y                 Z
Electronic contribution:      0.000000000      -0.000000000       0.000000000
Nuclear contribution   :      0.000000000       0.000000000       0.000000000
                        -----------------------------------------
Total Dipole Moment    :      0.000000000      -0.000000000       0.000000000
                        -----------------------------------------
Magnitude (a.u.)       :      0.000000000
Magnitude (Debye)      :      0.000000000

Rotational constants in cm-1:             0.000000             0.000000             0.000000
Rotational constants in MHz :             0.000000             0.000000             0.000000

                             ****ORCA TERMINATED NORMALLY****
TOTAL RUN TIME: 0 days 0 hours 0 minutes 0 seconds 355 msec
