                         Program Version 6.0.1  -  RELEASE   -
|  1>  ! DEFGRID2
|  2>  ! wB97X-3c
|  3>  ! SP
|  4>  %pal
|  5> nprocs 1
|  6>  end
|  7>  %maxcore 8000
|  8>  *xyzfile            0             2  fragment.xyz
|  9>
| 10>                          ****END OF INPUT****

CARTESIAN COORDINATES (ANGSTROEM)
---------------------------------
  C     -0.542725   -6.944611   -0.457186
  C      0.389164   -6.477541    0.591675
  H     -0.253160   -6.577149   -1.445281
  H     -0.551235   -8.036669   -0.531918
  H     -1.564005   -6.620884   -0.267178
  H      1.450097   -6.667997    0.506996
  H      0.037622   -5.973194    1.479704

 Total Charge           Charge          ....    0
 Multiplicity           Mult            ....    2
 Number of Electrons    NEL             ....   13
 Basis Dimension        Dim             ....   51

ORBITAL ENERGIES
----------------
                 SPIN UP ORBITALS
  NO   OCC          E(Eh)            E(eV)
   0   1.0000      -0.897568       -24.4241
   1   1.0000      -0.738862       -20.1055
   2   1.0000      -0.568885       -15.4801
   3   1.0000      -0.528939       -14.3932
   4   1.0000      -0.504578       -13.7303
   5   1.0000      -0.465384       -12.6637
   6   1.0000      -0.303192        -8.2503
   7   0.0000       0.096516         2.6263
   8   0.0000       0.118107         3.2139
   9   0.0000       0.125873         3.4252
  10   0.0000       0.145994         3.9727
  11   0.0000       0.177973         4.8429

                 SPIN DOWN ORBITALS
  NO   OCC          E(Eh)            E(eV)
   0   1.0000      -0.879994       -23.9459
   1   1.0000      -0.711869       -19.3709
   2   1.0000      -0.561746       -15.2859
   3   1.0000      -0.510594       -13.8940
   4   1.0000      -0.494858       -13.4658
   5   1.0000      -0.460030       -12.5180
   6   0.0000       0.035642         0.9699
   7   0.0000       0.098330         2.6757
   8   0.0000       0.122842         3.3427
   9   0.0000       0.127411         3.4670
  10   0.0000       0.147891         4.0243

MULLIKEN ATOMIC CHARGES AND SPIN POPULATIONS
--------------------------------------------
   0 C :   -0.074973   -0.065506
   1 C :   -0.113903    1.024241
   2 H :    0.042247    0.034343
   3 H :    0.043745    0.043607
   4 H :    0.036351    0.001644
   5 H :    0.034723   -0.019077
   6 H :    0.031811   -0.019253
Sum of atomic charges         :    0.0000000

LOEWDIN ATOMIC CHARGES AND SPIN POPULATIONS
-------------------------------------------
   0 C :   -0.145925    0.041233
   1 C :   -0.029278    0.814310
   2 H :    0.049943    0.027792
   3 H :    0.050195    0.035629
   4 H :    0.047828   -0.000487
   5 H :    0.014008    0.039799
   6 H :    0.013229    0.041723

  Mayer bond orders larger than 0.100000
B(  0-C ,  1-C ) :   1.0448 B(  0-C ,  2-H ) :   0.9775 B(  0-C ,  3-H ) :   0.9736
B(  0-C ,  4-H ) :   0.9923 B(  1-C ,  5-H ) :   1.0222 B(  1-C ,  6-H ) :   1.0254

Dispersion correction           -0.002958716
FINAL SINGLE POINT ENERGY       -14.345329179982

DIPOLE MOMENT
-------------

Method             : SCF
Type of density    : Electron Density
Multiplicity       :   2
Irrep              :   0
Energy             :   -14.3423704640587815 Eh
Relativity type    :
Basis              : AO
                                X                 Y                 Z
Electronic contribution:      0.448694704       0.276157954       0.530575595
Nuclear contribution   :     -0.515484068      -0.332582916      -0.616264296
                        -----------------------------------------
Total Dipole Moment    :     -0.066789365      -0.056424963      -0.085688701
                        -----------------------------------------
Magnitude (a.u.)       :      0.122422013
Magnitude (Debye)      :      0.311172027

Rotational constants in cm-1:             3.484200             0.766453             0.709675
Rotational constants in MHz :        104453.691123         22977.681329         21275.515575

                             ****ORCA TERMINATED NORMALLY****
TOTAL RUN TIME: 0 days 0 hours 0 minutes 19 seconds 256 msec
