                         Program Version 6.0.1  -  RELEASE   -
|  1>  ! DEFGRID2
|  2>  ! wB97X-3c
|  3>  ! SP
|  4>  %pal
|  5> nprocs 1
|  6>  end
|  7>  %maxcore 8000
|  8>  *xyzfile            1             2  fragment.xyz
|  9>
| 10>                          ****END OF INPUT****

CARTESIAN COORDINATES (ANGSTROEM)
---------------------------------
  C      1.156632   -3.304248   -0.054630
  C      0.575349   -1.940889    0.060898
  O      1.178925   -0.935606   -0.180774
  H      2.189782   -3.268034   -0.381453
  H      1.048673   -3.765000    0.929858
  H      0.518540   -3.846423   -0.756250
  H     -0.476476   -1.792082    0.386657

 Total Charge           Charge          ....    1
 Multiplicity           Mult            ....    2
 Number of Electrons    NEL             ....   17
 Basis Dimension        Dim             ....   59

ORBITAL ENERGIES
----------------
                 SPIN UP ORBITALS
  NO   OCC          E(Eh)            E(eV)
   0   1.0000      -1.575879       -42.8819
   1   1.0000      -1.181640       -32.1541
   2   1.0000      -1.027986       -27.9729
   3   1.0000      -0.950356       -25.8605
   4   1.0000      -0.887832       -24.1591
   5   1.0000      -0.883579       -24.0434
   6   1.0000      -0.777104       -21.1461
   7   1.0000      -0.776145       -21.1200
   8   1.0000      -0.749357       -20.3911
   9   0.0000      -0.243775        -6.6335
  10   0.0000      -0.107174        -2.9164
  11   0.0000      -0.077476        -2.1082
  12   0.0000      -0.043646        -1.1877
  13   0.0000      -0.028603        -0.7783

                 SPIN DOWN ORBITALS
  NO   OCC          E(Eh)            E(eV)
   0   1.0000      -1.530829       -41.6560
   1   1.0000      -1.165750       -31.7217
   2   1.0000      -0.995999       -27.1025
   3   1.0000      -0.907342       -24.6900
   4   1.0000      -0.867319       -23.6010
   5   1.0000      -0.841245       -22.8914
   6   1.0000      -0.771250       -20.9868
   7   1.0000      -0.767858       -20.8945
   8   0.0000      -0.381929       -10.3928
   9   0.0000      -0.238594        -6.4925
  10   0.0000      -0.103312        -2.8113
  11   0.0000      -0.074423        -2.0252
  12   0.0000      -0.042543        -1.1577

MULLIKEN ATOMIC CHARGES AND SPIN POPULATIONS
--------------------------------------------
   0 C :    0.020968    0.123608
   1 C :    0.281779   -0.058132
   2 O :    0.177065    0.816941
   3 H :    0.113651   -0.002518
   4 H :    0.127072   -0.000143
   5 H :    0.127196   -0.000161
   6 H :    0.152268    0.120404
Sum of atomic charges         :    1.0000000

LOEWDIN ATOMIC CHARGES AND SPIN POPULATIONS
-------------------------------------------
   0 C :    0.012882    0.090752
   1 C :    0.214643    0.056642
   2 O :    0.294855    0.761775
   3 H :    0.096700    0.001459
   4 H :    0.113552    0.004142
   5 H :    0.113664    0.004133
   6 H :    0.153703    0.081098

  Mayer bond orders larger than 0.100000
B(  0-C ,  1-C ) :   0.9802 B(  0-C ,  3-H ) :   0.9678 B(  0-C ,  4-H ) :   0.9288
B(  0-C ,  5-H ) :   0.9285 B(  1-C ,  2-O ) :   1.7683 B(  1-C ,  6-H ) :   0.9185

Dispersion correction           -0.002693530
FINAL SINGLE POINT ENERGY       -29.471419204574

DIPOLE MOMENT
-------------

Method             : SCF
Type of density    : Electron Density
Multiplicity       :   2
Irrep              :   0
Energy             :   -29.4687256744119424 Eh
Relativity type    :
Basis              : AO
                                X                 Y                 Z
Electronic contribution:     -0.164118654       3.377977062      -0.116766514
Nuclear contribution   :     -0.521541782      -4.136725183       0.371486791
                        -----------------------------------------
Total Dipole Moment    :     -0.685660436      -0.758748121       0.254720278
                        -----------------------------------------
Magnitude (a.u.)       :      1.053902920
Magnitude (Debye)      :      2.678808334

Rotational constants in cm-1:             1.895535             0.348553             0.311588
Rotational constants in MHz :         56826.714497         10449.364920          9341.185580

                             ****ORCA TERMINATED NORMALLY****
TOTAL RUN TIME: 0 days 0 hours 0 minutes 27 seconds 46 msec
