                         Program Version 6.0.1  -  RELEASE   -
|  1>  ! DEFGRID2
|  2>  ! wB97X-3c
|  3>  ! SP
|  4>  %pal
|  5> nprocs 1
|  6>  end
|  7>  %maxcore 8000
|  8>  *xyzfile            0             1  fragment.xyz
|  9>
| 10>                          ****END OF INPUT****

CARTESIAN COORDINATES (ANGSTROEM)
---------------------------------
  C      1.128711   -3.289966   -0.050862
  C      0.580230   -1.907575    0.055906
  O      1.216100   -0.909625   -0.148861
  H      2.159804   -3.262314   -0.392153
  H      1.071641   -3.773176    0.924990
  H      0.517895   -3.877527   -0.735856
  H     -0.482956   -1.832099    0.351143

 Total Charge           Charge          ....    0
 Multiplicity           Mult            ....    1
 Number of Electrons    NEL             ....   18
 Basis Dimension        Dim             ....   59

ORBITAL ENERGIES
----------------

  NO   OCC          E(Eh)            E(eV)
   0   2.0000      -1.182014       -32.1642
   1   2.0000      -0.898320       -24.4445
   2   2.0000      -0.711349       -19.3568
   3   2.0000      -0.604752       -16.4561
   4   2.0000      -0.568707       -15.4753
   5   2.0000      -0.557371       -15.1668
   6   2.0000      -0.514706       -14.0059
   7   2.0000      -0.481437       -13.1006
   8   2.0000      -0.372916       -10.1476
   9   0.0000       0.060217         1.6386
  10   0.0000       0.086447         2.3523
  11   0.0000       0.108832         2.9615
  12   0.0000       0.129914         3.5351
  13   0.0000       0.149296         4.0625

MULLIKEN ATOMIC CHARGES
-----------------------
   0 C :   -0.070480
   1 C :    0.180265
   2 O :   -0.275345
   3 H :    0.051396
   4 H :    0.056627
   5 H :    0.054577
   6 H :    0.002959
Sum of atomic charges:    0.0000000

LOEWDIN ATOMIC CHARGES
----------------------
   0 C :   -0.103391
   1 C :    0.015074
   2 O :   -0.119150
   3 H :    0.056633
   4 H :    0.059236
   5 H :    0.057747
   6 H :    0.033851

  Mayer bond orders larger than 0.100000
B(  0-C ,  1-C ) :   1.0166 B(  0-C ,  3-H ) :   0.9824 B(  0-C ,  4-H ) :   0.9701
B(  0-C ,  5-H ) :   0.9730 B(  1-C ,  2-O ) :   1.9486 B(  1-C ,  6-H ) :   1.0036

Dispersion correction           -0.003518281
FINAL SINGLE POINT ENERGY       -29.850646846220

DIPOLE MOMENT
-------------

Method             : SCF
Type of density    : Electron Density
Multiplicity       :   1
Irrep              :   0
Energy             :   -29.8471285649925626 Eh
Relativity type    :
Basis              : AO
                                X                 Y                 Z
Electronic contribution:      0.066127924       3.235836744      -0.138499563
Nuclear contribution   :     -0.535468072      -4.326512772       0.307082541
                        -----------------------------------------
Total Dipole Moment    :     -0.469340148      -1.090676028       0.168582979
                        -----------------------------------------
Magnitude (a.u.)       :      1.199280865
Magnitude (Debye)      :      3.048329704

Rotational constants in cm-1:             1.913659             0.343991             0.308100
Rotational constants in MHz :         57370.041823         10312.598466          9236.592621

                             ****ORCA TERMINATED NORMALLY****
TOTAL RUN TIME: 0 days 0 hours 0 minutes 23 seconds 682 msec
