                         Program Version 6.0.1  -  RELEASE   -
|  1>  ! DEFGRID2
|  2>  ! wB97X-3c
|  3>  ! SP
|  4>  %pal
|  5> nprocs 4
|  6>  end
|  7>  %maxcore 8000
|  8>  *xyzfile            1             2  isomer.xyz
|  9>
| 10>                          ****END OF INPUT****

CARTESIAN COORDINATES (ANGSTROEM)
---------------------------------
  C     -0.769741   -1.013068   -0.002453
  C      0.757918   -1.022402    0.022893
  C      0.006495    1.117629    0.032137
  O      1.110831    0.376383   -0.009748
  O     -1.106360    0.388733    0.058281
  H     -0.015486    1.859859   -0.813628
  H     -1.235753   -1.491307    0.855199
  H     -1.206001   -1.403748   -0.919064
  H      1.217545   -1.487962   -0.845168
  H      1.190271   -1.436958    0.930815
  H      0.037040    1.839172    0.895829

 Total Charge           Charge          ....    1
 Multiplicity           Mult            ....    2
 Number of Electrons    NEL             ....   29
 Basis Dimension        Dim             ....   95

ORBITAL ENERGIES
----------------
                 SPIN UP ORBITALS
  NO   OCC          E(Eh)            E(eV)
   0   1.0000      -1.531185       -41.6657
   1   1.0000      -1.422442       -38.7066
   2   1.0000      -1.172975       -31.9183
   3   1.0000      -1.032141       -28.0860
   4   1.0000      -1.018371       -27.7113
   5   1.0000      -0.921145       -25.0656
   6   1.0000      -0.911767       -24.8104
   7   1.0000      -0.829482       -22.5713
   8   1.0000      -0.803848       -21.8738
   9   1.0000      -0.803202       -21.8562
  10   1.0000      -0.790738       -21.5171
  11   1.0000      -0.736365       -20.0375
  12   1.0000      -0.711524       -19.3616
  13   1.0000      -0.655142       -17.8273
  14   1.0000      -0.639670       -17.4063
  15   0.0000      -0.097615        -2.6562
  16   0.0000      -0.067237        -1.8296
  17   0.0000      -0.054577        -1.4851
  18   0.0000      -0.053897        -1.4666
  19   0.0000      -0.033110        -0.9010

                 SPIN DOWN ORBITALS
  NO   OCC          E(Eh)            E(eV)
   0   1.0000      -1.516436       -41.2643
   1   1.0000      -1.403238       -38.1840
   2   1.0000      -1.166701       -31.7475
   3   1.0000      -1.028291       -27.9812
   4   1.0000      -0.998854       -27.1802
   5   1.0000      -0.901320       -24.5262
   6   1.0000      -0.889477       -24.2039
   7   1.0000      -0.823295       -22.4030
   8   1.0000      -0.789044       -21.4710
   9   1.0000      -0.779263       -21.2048
  10   1.0000      -0.755479       -20.5576
  11   1.0000      -0.726072       -19.7574
  12   1.0000      -0.707945       -19.2642
  13   1.0000      -0.609792       -16.5933
  14   0.0000      -0.349335        -9.5059
  15   0.0000      -0.095458        -2.5976
  16   0.0000      -0.062240        -1.6936
  17   0.0000      -0.052377        -1.4253
  18   0.0000      -0.049888        -1.3575

MULLIKEN ATOMIC CHARGES AND SPIN POPULATIONS
--------------------------------------------
   0 C :    0.133988   -0.005011
   1 C :    0.134049   -0.005009
   2 C :    0.280375    0.027398
   3 O :   -0.161030    0.294813
   4 O :   -0.160825    0.294908
   5 H :    0.172693    0.169355
   6 H :    0.107913    0.012726
   7 H :    0.105969    0.013941
   8 H :    0.107923    0.012747
   9 H :    0.105960    0.013879
  10 H :    0.172985    0.170253
Sum of atomic charges         :    1.0000000

LOEWDIN ATOMIC CHARGES AND SPIN POPULATIONS
-------------------------------------------
   0 C :    0.047933    0.010442
   1 C :    0.047978    0.010425
   2 C :    0.019752    0.139410
   3 O :    0.101475    0.281914
   4 O :    0.101611    0.282002
   5 H :    0.165147    0.120312
   6 H :    0.088462    0.008103
   7 H :    0.086883    0.009180
   8 H :    0.088485    0.008117
   9 H :    0.086850    0.009138
  10 H :    0.165425    0.120957

  Mayer bond orders larger than 0.100000
B(  0-C ,  1-C ) :   0.9766 B(  0-C ,  4-O ) :   0.8500 B(  0-C ,  6-H ) :   0.9833
B(  0-C ,  7-H ) :   0.9822 B(  1-C ,  3-O ) :   0.8499 B(  1-C ,  8-H ) :   0.9833
B(  1-C ,  9-H ) :   0.9823 B(  2-C ,  3-O ) :   1.1365 B(  2-C ,  4-O ) :   1.1365
B(  2-C ,  5-H ) :   0.8507 B(  2-C , 10-H ) :   0.8499 B(  3-O ,  4-O ) :   0.1738

Dispersion correction           -0.007206051
FINAL SINGLE POINT ENERGY       -52.434993534340

DIPOLE MOMENT
-------------

Method             : SCF
Type of density    : Electron Density
Multiplicity       :   2
Irrep              :   0
Energy             :   -52.4277874836382551 Eh
Relativity type    :
Basis              : AO
                                X                 Y                 Z
Electronic contribution:      0.008937525       1.567725488       0.014840699
Nuclear contribution   :     -0.009196897      -1.565879474      -0.013516464
                        -----------------------------------------
Total Dipole Moment    :     -0.000259372       0.001846014       0.001324235
                        -----------------------------------------
Magnitude (a.u.)       :      0.002286622
Magnitude (Debye)      :      0.005812131

Rotational constants in cm-1:             0.263536             0.260609             0.141324
Rotational constants in MHz :          7900.603810          7812.846697          4236.780021

                             ****ORCA TERMINATED NORMALLY****
TOTAL RUN TIME: 0 days 0 hours 0 minutes 23 seconds 254 msec
