                         Program Version 6.0.1  -  RELEASE   -
|  1>  ! DEFGRID2
|  2>  ! wB97X-3c
|  3>  ! SP
|  4>  %pal
|  5> nprocs 1
|  6>  end
|  7>  %maxcore 8000
|  8>  *xyzfile            1             2  fragment.xyz
|  9>
| 10>                          ****END OF INPUT****

CARTESIAN COORDINATES (ANGSTROEM)
---------------------------------
  O     -3.618218    1.227102    0.192607
  H     -4.100818    1.270571    1.067976
  H     -4.268728    1.265486   -0.566582

 Total Charge           Charge          ....    1
 Multiplicity           Mult            ....    2
 Number of Electrons    NEL             ....    7
 Basis Dimension        Dim             ....   23

ORBITAL ENERGIES
----------------
                 SPIN UP ORBITALS
  NO   OCC          E(Eh)            E(eV)
   0   1.0000      -1.627953       -44.2989
   1   1.0000      -1.114575       -30.3291
   2   1.0000      -0.987576       -26.8733
   3   1.0000      -0.970420       -26.4065
   4   0.0000      -0.215091        -5.8529
   5   0.0000      -0.141134        -3.8404
   6   0.0000       0.103919         2.8278
   7   0.0000       0.151800         4.1307
   8   0.0000       0.192196         5.2299

                 SPIN DOWN ORBITALS
  NO   OCC          E(Eh)            E(eV)
   0   1.0000      -1.553212       -42.2650
   1   1.0000      -1.091452       -29.6999
   2   1.0000      -0.939144       -25.5554
   3   0.0000      -0.495694       -13.4885
   4   0.0000      -0.205716        -5.5978
   5   0.0000      -0.135138        -3.6773
   6   0.0000       0.114898         3.1265
   7   0.0000       0.155457         4.2302

MULLIKEN ATOMIC CHARGES AND SPIN POPULATIONS
--------------------------------------------
   0 O :    0.414552    1.035163
   1 H :    0.292765   -0.017584
   2 H :    0.292683   -0.017579
Sum of atomic charges         :    1.0000000

LOEWDIN ATOMIC CHARGES AND SPIN POPULATIONS
-------------------------------------------
   0 O :    0.559886    0.965692
   1 H :    0.220075    0.017151
   2 H :    0.220039    0.017157

  Mayer bond orders larger than 0.100000
B(  0-O ,  1-H ) :   0.9538 B(  0-O ,  2-H ) :   0.9539

Dispersion correction           -0.000133455
FINAL SINGLE POINT ENERGY       -16.802453888585

DIPOLE MOMENT
-------------

Method             : SCF
Type of density    : Electron Density
Multiplicity       :   2
Irrep              :   0
Energy             :   -16.8023204336365808 Eh
Relativity type    :
Basis              : AO
                                X                 Y                 Z
Electronic contribution:      0.245524412      -0.017692680      -0.025169636
Nuclear contribution   :     -1.182778484       0.085440724       0.121272057
                        -----------------------------------------
Total Dipole Moment    :     -0.937254072       0.067748043       0.096102422
                        -----------------------------------------
Magnitude (a.u.)       :      0.944600798
Magnitude (Debye)      :      2.400984420

Rotational constants in cm-1:            28.879185            12.388033             8.669262
Rotational constants in MHz :        865776.199951        371383.900731        259897.924384

                             ****ORCA TERMINATED NORMALLY****
TOTAL RUN TIME: 0 days 0 hours 0 minutes 3 seconds 118 msec
