                         Program Version 6.0.1  -  RELEASE   -
|  1>  ! DEFGRID2
|  2>  ! wB97X-3c
|  3>  ! SP
|  4>  %pal
|  5> nprocs 1
|  6>  end
|  7>  %maxcore 8000
|  8>  *xyzfile            1             2  fragment.xyz
|  9>
| 10>                          ****END OF INPUT****

CARTESIAN COORDINATES (ANGSTROEM)
---------------------------------
  C     -0.865486    3.214116    0.017275
  O     -1.975125    2.793135    0.037684
  H     -0.340974    3.412347    0.979439
  H     -0.373130    3.402072   -0.963781

 Total Charge           Charge          ....    1
 Multiplicity           Mult            ....    2
 Number of Electrons    NEL             ....   11
 Basis Dimension        Dim             ....   36

ORBITAL ENERGIES
----------------
                 SPIN UP ORBITALS
  NO   OCC          E(Eh)            E(eV)
   0   1.0000      -1.624728       -44.2111
   1   1.0000      -1.116433       -30.3797
   2   1.0000      -1.020990       -27.7826
   3   1.0000      -0.962847       -26.2004
   4   1.0000      -0.915317       -24.9070
   5   1.0000      -0.805826       -21.9276
   6   0.0000      -0.294175        -8.0049
   7   0.0000      -0.132228        -3.5981
   8   0.0000      -0.082042        -2.2325
   9   0.0000      -0.050512        -1.3745
  10   0.0000       0.110653         3.0110

                 SPIN DOWN ORBITALS
  NO   OCC          E(Eh)            E(eV)
   0   1.0000      -1.578309       -42.9480
   1   1.0000      -1.087813       -29.6009
   2   1.0000      -0.948092       -25.7989
   3   1.0000      -0.936781       -25.4911
   4   1.0000      -0.892482       -24.2857
   5   0.0000      -0.420791       -11.4503
   6   0.0000      -0.288741        -7.8570
   7   0.0000      -0.128475        -3.4960
   8   0.0000      -0.075351        -2.0504
   9   0.0000      -0.045084        -1.2268

MULLIKEN ATOMIC CHARGES AND SPIN POPULATIONS
--------------------------------------------
   0 C :    0.387068   -0.066185
   1 O :    0.231981    0.824041
   2 H :    0.190466    0.121054
   3 H :    0.190485    0.121089
Sum of atomic charges         :    1.0000000

LOEWDIN ATOMIC CHARGES AND SPIN POPULATIONS
-------------------------------------------
   0 C :    0.337161    0.069076
   1 O :    0.336833    0.770031
   2 H :    0.162994    0.080432
   3 H :    0.163011    0.080461

  Mayer bond orders larger than 0.100000
B(  0-C ,  1-O ) :   1.9104 B(  0-C ,  2-H ) :   0.8916 B(  0-C ,  3-H ) :   0.8916

Dispersion correction           -0.000784672
FINAL SINGLE POINT ENERGY       -22.522308209054

DIPOLE MOMENT
-------------

Method             : SCF
Type of density    : Electron Density
Multiplicity       :   2
Irrep              :   0
Energy             :   -22.5215235368053186 Eh
Relativity type    :
Basis              : AO
                                X                 Y                 Z
Electronic contribution:     -0.691391228      -0.262643345       0.012883407
Nuclear contribution   :      1.973788941       0.749281140      -0.036516656
                        -----------------------------------------
Total Dipole Moment    :      1.282397713       0.486637795      -0.023633249
                        -----------------------------------------
Magnitude (a.u.)       :      1.371830445
Magnitude (Debye)      :      3.486915881

Rotational constants in cm-1:             8.855050             1.351404             1.172469
Rotational constants in MHz :        265467.731795         40514.067173         35149.729924

                             ****ORCA TERMINATED NORMALLY****
TOTAL RUN TIME: 0 days 0 hours 0 minutes 11 seconds 417 msec
