                         Program Version 6.0.1  -  RELEASE   -
|  1>  ! DEFGRID2
|  2>  ! wB97X-3c
|  3>  ! SP
|  4>  %pal
|  5> nprocs 1
|  6>  end
|  7>  %maxcore 8000
|  8>  *xyzfile            0             2  fragment.xyz
|  9>
| 10>                          ****END OF INPUT****

CARTESIAN COORDINATES (ANGSTROEM)
---------------------------------
  C     -0.080885   -2.082893   -0.285429
  C      0.726344   -1.055532    0.456188
  C     -0.201780    1.003333   -0.207598
  O      0.809627    0.185483   -0.297782
  O     -1.205899    0.920901    0.414672
  H      0.344475   -2.271714   -1.268999
  H     -0.078217   -3.016362    0.275464
  H     -1.113283   -1.760361   -0.401532
  H      1.762075   -1.358888    0.576549
  H      0.300803   -0.826096    1.430763

 Total Charge           Charge          ....    0
 Multiplicity           Mult            ....    2
 Number of Electrons    NEL             ....   29
 Basis Dimension        Dim             ....   90

ORBITAL ENERGIES
----------------
                 SPIN UP ORBITALS
  NO   OCC          E(Eh)            E(eV)
   0   1.0000      -1.270194       -34.5637
   1   1.0000      -1.186744       -32.2929
   2   1.0000      -0.937299       -25.5052
   3   1.0000      -0.815656       -22.1951
   4   1.0000      -0.702914       -19.1273
   5   1.0000      -0.646059       -17.5802
   6   1.0000      -0.627839       -17.0844
   7   1.0000      -0.608762       -16.5652
   8   1.0000      -0.563568       -15.3355
   9   1.0000      -0.536798       -14.6070
  10   1.0000      -0.519268       -14.1300
  11   1.0000      -0.497269       -13.5314
  12   1.0000      -0.469696       -12.7811
  13   1.0000      -0.444834       -12.1046
  14   1.0000      -0.342081        -9.3085
  15   0.0000       0.082058         2.2329
  16   0.0000       0.096234         2.6187
  17   0.0000       0.110912         3.0181
  18   0.0000       0.119056         3.2397
  19   0.0000       0.140522         3.8238

                 SPIN DOWN ORBITALS
  NO   OCC          E(Eh)            E(eV)
   0   1.0000      -1.258640       -34.2493
   1   1.0000      -1.172673       -31.9101
   2   1.0000      -0.931742       -25.3540
   3   1.0000      -0.806980       -21.9590
   4   1.0000      -0.694929       -18.9100
   5   1.0000      -0.631658       -17.1883
   6   1.0000      -0.611320       -16.6349
   7   1.0000      -0.600328       -16.3358
   8   1.0000      -0.549250       -14.9459
   9   1.0000      -0.525445       -14.2981
  10   1.0000      -0.515687       -14.0326
  11   1.0000      -0.482229       -13.1221
  12   1.0000      -0.456220       -12.4144
  13   1.0000      -0.441939       -12.0258
  14   0.0000      -0.004570        -0.1243
  15   0.0000       0.085063         2.3147
  16   0.0000       0.111024         3.0211
  17   0.0000       0.113590         3.0909
  18   0.0000       0.123153         3.3512

MULLIKEN ATOMIC CHARGES AND SPIN POPULATIONS
--------------------------------------------
   0 C :   -0.057117   -0.003736
   1 C :    0.083250    0.071723
   2 C :    0.144771    0.736032
   3 O :   -0.204294   -0.012850
   4 O :   -0.217106    0.203716
   5 H :    0.047273   -0.000304
   6 H :    0.043934    0.003730
   7 H :    0.051009    0.001942
   8 H :    0.054693   -0.000350
   9 H :    0.053587    0.000098
Sum of atomic charges         :   -0.0000000

LOEWDIN ATOMIC CHARGES AND SPIN POPULATIONS
-------------------------------------------
   0 C :   -0.101845    0.002482
   1 C :   -0.019246    0.049063
   2 C :   -0.019587    0.628634
   3 O :   -0.021242    0.074682
   4 O :   -0.106928    0.232305
   5 H :    0.051347    0.000215
   6 H :    0.056554    0.002796
   7 H :    0.051194    0.002132
   8 H :    0.058942    0.003138
   9 H :    0.050811    0.004554

  Mayer bond orders larger than 0.100000
B(  0-C ,  1-C ) :   0.9990 B(  0-C ,  5-H ) :   0.9875 B(  0-C ,  6-H ) :   0.9861
B(  0-C ,  7-H ) :   0.9870 B(  1-C ,  3-O ) :   0.8293 B(  1-C ,  8-H ) :   1.0070
B(  1-C ,  9-H ) :   0.9980 B(  2-C ,  3-O ) :   1.1787 B(  2-C ,  4-O ) :   1.9856

Dispersion correction           -0.007275022
FINAL SINGLE POINT ENERGY       -52.158488995017

DIPOLE MOMENT
-------------

Method             : SCF
Type of density    : Electron Density
Multiplicity       :   2
Irrep              :   0
Energy             :   -52.1512139726289803 Eh
Relativity type    :
Basis              : AO
                                X                 Y                 Z
Electronic contribution:     -0.439569018       7.052106298      -0.523180717
Nuclear contribution   :      0.997295827      -8.105168226       0.670292544
                        -----------------------------------------
Total Dipole Moment    :      0.557726809      -1.053061928       0.147111827
                        -----------------------------------------
Magnitude (a.u.)       :      1.200683350
Magnitude (Debye)      :      3.051894538

Rotational constants in cm-1:             0.353861             0.130611             0.109547
Rotational constants in MHz :         10608.492231          3915.625484          3284.127882

                             ****ORCA TERMINATED NORMALLY****
TOTAL RUN TIME: 0 days 0 hours 0 minutes 56 seconds 20 msec
