                         Program Version 6.0.1  -  RELEASE   -
|  1>  ! DEFGRID2
|  2>  ! wB97X-3c
|  3>  ! SP
|  4>  %pal
|  5> nprocs 1
|  6>  end
|  7>  %maxcore 8000
|  8>  *xyzfile            0             2  fragment.xyz
|  9>
| 10>                          ****END OF INPUT****

CARTESIAN COORDINATES (ANGSTROEM)
---------------------------------
  C     -1.772198    4.509394   -0.250755
  O     -1.972867    3.531010    0.361096
  H     -0.835426    4.695567   -0.830622

 Total Charge           Charge          ....    0
 Multiplicity           Mult            ....    2
 Number of Electrons    NEL             ....   11
 Basis Dimension        Dim             ....   31

ORBITAL ENERGIES
----------------
                 SPIN UP ORBITALS
  NO   OCC          E(Eh)            E(eV)
   0   1.0000      -1.243416       -33.8351
   1   1.0000      -0.750216       -20.4144
   2   1.0000      -0.627079       -17.0637
   3   1.0000      -0.566146       -15.4056
   4   1.0000      -0.557483       -15.1699
   5   1.0000      -0.331486        -9.0202
   6   0.0000       0.037951         1.0327
   7   0.0000       0.094612         2.5745
   8   0.0000       0.218876         5.9559
   9   0.0000       0.376391        10.2421
  10   0.0000       0.395215        10.7544

                 SPIN DOWN ORBITALS
  NO   OCC          E(Eh)            E(eV)
   0   1.0000      -1.226282       -33.3688
   1   1.0000      -0.718763       -19.5585
   2   1.0000      -0.600659       -16.3448
   3   1.0000      -0.548089       -14.9143
   4   1.0000      -0.507695       -13.8151
   5   0.0000       0.006332         0.1723
   6   0.0000       0.052911         1.4398
   7   0.0000       0.101430         2.7601
   8   0.0000       0.222916         6.0658
   9   0.0000       0.403547        10.9811

MULLIKEN ATOMIC CHARGES AND SPIN POPULATIONS
--------------------------------------------
   0 C :    0.024277    0.626959
   1 O :   -0.102290    0.247397
   2 H :    0.078013    0.125644
Sum of atomic charges         :    0.0000000

LOEWDIN ATOMIC CHARGES AND SPIN POPULATIONS
-------------------------------------------
   0 C :    0.033204    0.611400
   1 O :   -0.053634    0.280723
   2 H :    0.020430    0.107876

  Mayer bond orders larger than 0.100000
B(  0-C ,  1-O ) :   2.1440 B(  0-C ,  2-H ) :   0.9790

Dispersion correction           -0.000810731
FINAL SINGLE POINT ENERGY       -22.270260384396

DIPOLE MOMENT
-------------

Method             : SCF
Type of density    : Electron Density
Multiplicity       :   2
Irrep              :   0
Energy             :   -22.2694496537937212 Eh
Relativity type    :
Basis              : AO
                                X                 Y                 Z
Electronic contribution:     -0.635821753       0.023386593       0.315770456
Nuclear contribution   :      1.118400055       0.337231963      -0.752029197
                        -----------------------------------------
Total Dipole Moment    :      0.482578302       0.360618555      -0.436258741
                        -----------------------------------------
Magnitude (a.u.)       :      0.743807266
Magnitude (Debye)      :      1.890607822

Rotational constants in cm-1:            23.734337             1.510886             1.420462
Rotational constants in MHz :        711537.521812         45295.224260         42584.377839

                             ****ORCA TERMINATED NORMALLY****
TOTAL RUN TIME: 0 days 0 hours 0 minutes 5 seconds 586 msec
