                         Program Version 6.0.1  -  RELEASE   -
|  1>  ! DEFGRID2
|  2>  ! wB97X-3c
|  3>  ! SP
|  4>  %pal
|  5> nprocs 1
|  6>  end
|  7>  %maxcore 8000
|  8>  *xyzfile            1             1  fragment.xyz
|  9>
| 10>                          ****END OF INPUT****

CARTESIAN COORDINATES (ANGSTROEM)
---------------------------------
  C     -0.410832   -1.157157   -0.361466
  C      0.801169   -0.924813    0.534727
  C      0.033994    1.014200   -0.227834
  O      0.943899    0.536908    0.499557
  O     -0.775495    0.209798   -0.759386
  H     -0.199376   -1.699568   -1.276495
  H     -1.275093   -1.573224    0.144434
  H      1.730046   -1.336464    0.155481
  H      0.653677   -1.196891    1.574180
  H     -0.049926    2.084288   -0.391228

 Total Charge           Charge          ....    1
 Multiplicity           Mult            ....    1
 Number of Electrons    NEL             ....   28
 Basis Dimension        Dim             ....   90

ORBITAL ENERGIES
----------------

  NO   OCC          E(Eh)            E(eV)
   0   2.0000      -1.566943       -42.6387
   1   2.0000      -1.446367       -39.3576
   2   2.0000      -1.179178       -32.0871
   3   2.0000      -1.053082       -28.6558
   4   2.0000      -0.999129       -27.1877
   5   2.0000      -0.933463       -25.4008
   6   2.0000      -0.901607       -24.5340
   7   2.0000      -0.844874       -22.9902
   8   2.0000      -0.797075       -21.6895
   9   2.0000      -0.782462       -21.2919
  10   2.0000      -0.773881       -21.0584
  11   2.0000      -0.749178       -20.3862
  12   2.0000      -0.724616       -19.7178
  13   2.0000      -0.656672       -17.8690
  14   0.0000      -0.183385        -4.9902
  15   0.0000      -0.097197        -2.6449
  16   0.0000      -0.083149        -2.2626
  17   0.0000      -0.054727        -1.4892
  18   0.0000      -0.049482        -1.3465

MULLIKEN ATOMIC CHARGES
-----------------------
   0 C :    0.141671
   1 C :    0.141494
   2 C :    0.435303
   3 O :   -0.128515
   4 O :   -0.128665
   5 H :    0.108516
   6 H :    0.108486
   7 H :    0.108538
   8 H :    0.108537
   9 H :    0.104635
Sum of atomic charges:    1.0000000

LOEWDIN ATOMIC CHARGES
----------------------
   0 C :    0.071797
   1 C :    0.071452
   2 C :    0.160844
   3 O :    0.111266
   4 O :    0.111103
   5 H :    0.086902
   6 H :    0.087020
   7 H :    0.087060
   8 H :    0.086923
   9 H :    0.125633

  Mayer bond orders larger than 0.100000
B(  0-C ,  1-C ) :   0.9802 B(  0-C ,  4-O ) :   0.8165 B(  0-C ,  5-H ) :   0.9901
B(  0-C ,  6-H ) :   0.9902 B(  1-C ,  3-O ) :   0.8170 B(  1-C ,  7-H ) :   0.9901
B(  1-C ,  8-H ) :   0.9900 B(  2-C ,  3-O ) :   1.4210 B(  2-C ,  4-O ) :   1.4210
B(  2-C ,  9-H ) :   1.0187

Dispersion correction           -0.006716910
FINAL SINGLE POINT ENERGY       -51.915783606513

DIPOLE MOMENT
-------------

Method             : SCF
Type of density    : Electron Density
Multiplicity       :   1
Irrep              :   0
Energy             :   -51.9090666969971295 Eh
Relativity type    :
Basis              : AO
                                X                 Y                 Z
Electronic contribution:     -0.225945251       2.885507375      -0.441557784
Nuclear contribution   :      0.248083069      -3.165568755       0.484710827
                        -----------------------------------------
Total Dipole Moment    :      0.022137817      -0.280061380       0.043153043
                        -----------------------------------------
Magnitude (a.u.)       :      0.284229915
Magnitude (Debye)      :      0.722455031

Rotational constants in cm-1:             0.279645             0.279452             0.147652
Rotational constants in MHz :          8383.556662          8377.774852          4426.492687

                             ****ORCA TERMINATED NORMALLY****
TOTAL RUN TIME: 0 days 0 hours 0 minutes 59 seconds 195 msec
