                         Program Version 6.0.1  -  RELEASE   -
|  1>  ! DEFGRID2
|  2>  ! wB97X-3c
|  3>  ! SP
|  4>  %pal
|  5> nprocs 1
|  6>  end
|  7>  %maxcore 8000
|  8>  *xyzfile            1             1  fragment.xyz
|  9>
| 10>                          ****END OF INPUT****

CARTESIAN COORDINATES (ANGSTROEM)
---------------------------------
  C     -4.154925    6.583041    0.246685
  O     -3.516453    5.690658    0.156454
  H     -4.780873    7.481815    0.327814

 Total Charge           Charge          ....    1
 Multiplicity           Mult            ....    1
 Number of Electrons    NEL             ....   10
 Basis Dimension        Dim             ....   31

ORBITAL ENERGIES
----------------

  NO   OCC          E(Eh)            E(eV)
   0   2.0000      -1.656444       -45.0741
   1   2.0000      -1.108902       -30.1748
   2   2.0000      -0.988725       -26.9046
   3   2.0000      -0.943966       -25.6866
   4   2.0000      -0.943959       -25.6864
   5   0.0000      -0.283381        -7.7112
   6   0.0000      -0.283333        -7.7099
   7   0.0000      -0.158461        -4.3119
   8   0.0000      -0.095892        -2.6094
   9   0.0000       0.100045         2.7224

MULLIKEN ATOMIC CHARGES
-----------------------
   0 C :    0.526193
   1 O :    0.260268
   2 H :    0.213539
Sum of atomic charges:    1.0000000

LOEWDIN ATOMIC CHARGES
----------------------
   0 C :    0.547154
   1 O :    0.300061
   2 H :    0.152785

  Mayer bond orders larger than 0.100000
B(  0-C ,  1-O ) :   2.6731 B(  0-C ,  2-H ) :   0.9487

Dispersion correction           -0.000529471
FINAL SINGLE POINT ENERGY       -21.959731339194

DIPOLE MOMENT
-------------

Method             : SCF
Type of density    : Electron Density
Multiplicity       :   1
Irrep              :   0
Energy             :   -21.9592018686848682 Eh
Relativity type    :
Basis              : AO
                                X                 Y                 Z
Electronic contribution:     -0.125368389       0.157757289       0.023130343
Nuclear contribution   :     -0.809096578       1.158763492       0.105782998
                        -----------------------------------------
Total Dipole Moment    :     -0.934464967       1.316520781       0.128913341
                        -----------------------------------------
Magnitude (a.u.)       :      1.619589575
Magnitude (Debye)      :      4.116669542

Rotational constants in cm-1:         85760.829834             1.502739             1.502712
Rotational constants in MHz :    2571044997.600108         45050.971432         45050.182043

                             ****ORCA TERMINATED NORMALLY****
TOTAL RUN TIME: 0 days 0 hours 0 minutes 7 seconds 755 msec
