                         Program Version 6.0.1  -  RELEASE   -
|  1>  ! DEFGRID2
|  2>  ! wB97X-3c
|  3>  ! SP
|  4>  %pal
|  5> nprocs 1
|  6>  end
|  7>  %maxcore 8000
|  8>  *xyzfile            0             2  fragment.xyz
|  9>
| 10>                          ****END OF INPUT****

CARTESIAN COORDINATES (ANGSTROEM)
---------------------------------
  C     -0.543091   -1.734331   -0.248567
  C      0.745161   -1.028412   -0.105009
  C      0.005792    1.209546    0.109172
  O      0.846651    0.311006   -0.416612
  O     -0.841008    0.991645    0.919102
  H     -0.375720   -2.803667   -0.145442
  H     -1.272986   -1.416654    0.493662
  H     -0.980670   -1.554333   -1.235894
  H      1.693745   -1.519301   -0.259110
  H      0.225707    2.192672   -0.317915

 Total Charge           Charge          ....    0
 Multiplicity           Mult            ....    2
 Number of Electrons    NEL             ....   29
 Basis Dimension        Dim             ....   90

ORBITAL ENERGIES
----------------
                 SPIN UP ORBITALS
  NO   OCC          E(Eh)            E(eV)
   0   1.0000      -1.262837       -34.3635
   1   1.0000      -1.169512       -31.8240
   2   1.0000      -0.925684       -25.1891
   3   1.0000      -0.830547       -22.6003
   4   1.0000      -0.703483       -19.1428
   5   1.0000      -0.649042       -17.6613
   6   1.0000      -0.621371       -16.9084
   7   1.0000      -0.601751       -16.3745
   8   1.0000      -0.565571       -15.3900
   9   1.0000      -0.536412       -14.5965
  10   1.0000      -0.513778       -13.9806
  11   1.0000      -0.497532       -13.5385
  12   1.0000      -0.452471       -12.3124
  13   1.0000      -0.408311       -11.1107
  14   1.0000      -0.307555        -8.3690
  15   0.0000       0.079386         2.1602
  16   0.0000       0.093192         2.5359
  17   0.0000       0.105609         2.8738
  18   0.0000       0.112497         3.0612
  19   0.0000       0.146469         3.9856

                 SPIN DOWN ORBITALS
  NO   OCC          E(Eh)            E(eV)
   0   1.0000      -1.258103       -34.2347
   1   1.0000      -1.166499       -31.7420
   2   1.0000      -0.908825       -24.7304
   3   1.0000      -0.825196       -22.4547
   4   1.0000      -0.693991       -18.8844
   5   1.0000      -0.634425       -17.2636
   6   1.0000      -0.615514       -16.7490
   7   1.0000      -0.592489       -16.1225
   8   1.0000      -0.555197       -15.1077
   9   1.0000      -0.524715       -14.2782
  10   1.0000      -0.507954       -13.8221
  11   1.0000      -0.491125       -13.3642
  12   1.0000      -0.445404       -12.1201
  13   1.0000      -0.406943       -11.0735
  14   0.0000       0.017280         0.4702
  15   0.0000       0.087709         2.3867
  16   0.0000       0.101588         2.7643
  17   0.0000       0.106259         2.8914
  18   0.0000       0.115321         3.1380

MULLIKEN ATOMIC CHARGES AND SPIN POPULATIONS
--------------------------------------------
   0 C :   -0.062860   -0.055949
   1 C :    0.049063    0.938698
   2 C :    0.299878    0.022160
   3 O :   -0.209742    0.006288
   4 O :   -0.303114    0.026606
   5 H :    0.047240    0.001001
   6 H :    0.073505    0.025219
   7 H :    0.047250    0.053405
   8 H :    0.034153   -0.015710
   9 H :    0.024625   -0.001718
Sum of atomic charges         :   -0.0000000

LOEWDIN ATOMIC CHARGES AND SPIN POPULATIONS
-------------------------------------------
   0 C :   -0.125985    0.037914
   1 C :    0.017217    0.749449
   2 C :   -0.016693    0.029527
   3 O :   -0.000790    0.059636
   4 O :   -0.119756    0.024551
   5 H :    0.057784   -0.001079
   6 H :    0.055396    0.020426
   7 H :    0.050983    0.038496
   8 H :    0.027749    0.040179
   9 H :    0.054095    0.000901

  Mayer bond orders larger than 0.100000
B(  0-C ,  1-C ) :   1.0435 B(  0-C ,  5-H ) :   0.9867 B(  0-C ,  6-H ) :   0.9711
B(  0-C ,  7-H ) :   0.9663 B(  1-C ,  3-O ) :   0.9719 B(  1-C ,  8-H ) :   1.0383
B(  2-C ,  3-O ) :   1.1145 B(  2-C ,  4-O ) :   1.9481 B(  2-C ,  9-H ) :   1.0331

Dispersion correction           -0.007356585
FINAL SINGLE POINT ENERGY       -52.155410552798

DIPOLE MOMENT
-------------

Method             : SCF
Type of density    : Electron Density
Multiplicity       :   2
Irrep              :   0
Energy             :   -52.1480539681090605 Eh
Relativity type    :
Basis              : AO
                                X                 Y                 Z
Electronic contribution:      1.488599467       4.081170159       1.012146370
Nuclear contribution   :     -1.109823466      -4.393299801      -1.638376234
                        -----------------------------------------
Total Dipole Moment    :      0.378776002      -0.312129642      -0.626229864
                        -----------------------------------------
Magnitude (a.u.)       :      0.795650687
Magnitude (Debye)      :      2.022383325

Rotational constants in cm-1:             0.329005             0.145847             0.108829
Rotational constants in MHz :          9863.325159          4372.379855          3262.616915

                             ****ORCA TERMINATED NORMALLY****
TOTAL RUN TIME: 0 days 0 hours 1 minutes 6 seconds 151 msec
