                         Program Version 6.0.1  -  RELEASE   -
|  1>  ! DEFGRID2
|  2>  ! wB97X-3c
|  3>  ! SP
|  4>  %pal
|  5> nprocs 1
|  6>  end
|  7>  %maxcore 8000
|  8>  *xyzfile            1             1  fragment.xyz
|  9>
| 10>                          ****END OF INPUT****

CARTESIAN COORDINATES (ANGSTROEM)
---------------------------------
  C     -0.017218   -2.271429   -0.344246
  C      0.638438   -1.288568    0.523856
  C     -0.282087    1.123654    0.037772
  O      0.441772    0.219326   -0.215929
  O     -0.949974    2.010581    0.252244
  H      0.415005   -2.297286   -1.340363
  H      0.197751   -3.233728    0.133578
  H     -1.096516   -2.156402   -0.380840
  H      1.721763   -1.275969    0.532863
  H      0.194326   -1.092308    1.493361

 Total Charge           Charge          ....    1
 Multiplicity           Mult            ....    1
 Number of Electrons    NEL             ....   28
 Basis Dimension        Dim             ....   90

ORBITAL ENERGIES
----------------

  NO   OCC          E(Eh)            E(eV)
   0   2.0000      -1.549250       -42.1572
   1   2.0000      -1.501756       -40.8649
   2   2.0000      -1.168707       -31.8021
   3   2.0000      -1.021046       -27.7841
   4   2.0000      -0.931738       -25.3539
   5   2.0000      -0.895415       -24.3655
   6   2.0000      -0.883462       -24.0402
   7   2.0000      -0.876432       -23.8489
   8   2.0000      -0.817512       -22.2456
   9   2.0000      -0.765061       -20.8184
  10   2.0000      -0.749053       -20.3828
  11   2.0000      -0.719010       -19.5652
  12   2.0000      -0.708397       -19.2765
  13   2.0000      -0.690147       -18.7799
  14   0.0000      -0.189516        -5.1570
  15   0.0000      -0.122356        -3.3295
  16   0.0000      -0.110489        -3.0065
  17   0.0000      -0.067171        -1.8278
  18   0.0000      -0.047175        -1.2837

MULLIKEN ATOMIC CHARGES
-----------------------
   0 C :    0.001765
   1 C :    0.173623
   2 C :    0.448880
   3 O :   -0.146417
   4 O :    0.023835
   5 H :    0.092331
   6 H :    0.106159
   7 H :    0.079058
   8 H :    0.116505
   9 H :    0.104262
Sum of atomic charges:    1.0000000

LOEWDIN ATOMIC CHARGES
----------------------
   0 C :   -0.060829
   1 C :    0.179480
   2 C :    0.165709
   3 O :    0.114698
   4 O :    0.158729
   5 H :    0.081615
   6 H :    0.104015
   7 H :    0.075325
   8 H :    0.095905
   9 H :    0.085354

  Mayer bond orders larger than 0.100000
B(  0-C ,  1-C ) :   1.0465 B(  0-C ,  5-H ) :   0.9690 B(  0-C ,  6-H ) :   0.9292
B(  0-C ,  7-H ) :   0.9728 B(  1-C ,  3-O ) :   0.4764 B(  1-C ,  8-H ) :   0.9929
B(  1-C ,  9-H ) :   0.9942 B(  2-C ,  3-O ) :   1.7729 B(  2-C ,  4-O ) :   2.3243
B(  3-O ,  4-O ) :   0.1882

Dispersion correction           -0.005536360
FINAL SINGLE POINT ENERGY       -51.890824411998

DIPOLE MOMENT
-------------

Method             : SCF
Type of density    : Electron Density
Multiplicity       :   1
Irrep              :   0
Energy             :   -51.8852880523411315 Eh
Relativity type    :
Basis              : AO
                                X                 Y                 Z
Electronic contribution:     -1.018186297       8.167420997       0.235541169
Nuclear contribution   :      1.468173205      -9.343092051       0.158249133
                        -----------------------------------------
Total Dipole Moment    :      0.449986908      -1.175671054       0.393790302
                        -----------------------------------------
Magnitude (a.u.)       :      1.319000169
Magnitude (Debye)      :      3.352631992

Rotational constants in cm-1:             0.633500             0.081397             0.078430
Rotational constants in MHz :         18991.838392          2440.207388          2351.282896

                             ****ORCA TERMINATED NORMALLY****
TOTAL RUN TIME: 0 days 0 hours 0 minutes 57 seconds 9 msec
