                         Program Version 6.0.1  -  RELEASE   -
|  1>  ! DEFGRID2
|  2>  ! wB97X-3c
|  3>  ! SP
|  4>  %pal
|  5> nprocs 1
|  6>  end
|  7>  %maxcore 8000
|  8>  *xyzfile            0             2  fragment.xyz
|  9>
| 10>                          ****END OF INPUT****

CARTESIAN COORDINATES (ANGSTROEM)
---------------------------------
  H     -4.166237   -5.023058   -0.670016

 Total Charge           Charge          ....    0
 Multiplicity           Mult            ....    2
 Number of Electrons    NEL             ....    1
 Basis Dimension        Dim             ....    5

ORBITAL ENERGIES
----------------
                 SPIN UP ORBITALS
  NO   OCC          E(Eh)            E(eV)
   0   1.0000      -0.431797       -11.7498
   1   0.0000       0.300521         8.1776
   2   0.0000       0.859547        23.3895
   3   0.0000       0.859547        23.3895
   4   0.0000       0.859547        23.3895

                 SPIN DOWN ORBITALS
  NO   OCC          E(Eh)            E(eV)
   0   0.0000       0.106379         2.8947

MULLIKEN ATOMIC CHARGES AND SPIN POPULATIONS
--------------------------------------------
   0 H :   -0.000000    1.000000
Sum of atomic charges         :   -0.0000000

LOEWDIN ATOMIC CHARGES AND SPIN POPULATIONS
-------------------------------------------
   0 H :   -0.000000    1.000000

Dispersion correction            0.000000000
FINAL SINGLE POINT ENERGY        -0.502044766806

DIPOLE MOMENT
-------------

Method             : SCF
Type of density    : Electron Density
Multiplicity       :   2
Irrep              :   0
Energy             :    -0.5020447668056833 Eh
Relativity type    :
Basis              : AO
                                X                 Y                 Z
Electronic contribution:      0.000000404       0.000000139      -0.000000109
Nuclear contribution   :      0.000000000       0.000000000       0.000000000
                        -----------------------------------------
Total Dipole Moment    :      0.000000404       0.000000139      -0.000000109
                        -----------------------------------------
Magnitude (a.u.)       :      0.000000441
Magnitude (Debye)      :      0.000001121

Rotational constants in cm-1:             0.000000             0.000000             0.000000
Rotational constants in MHz :             0.000000             0.000000             0.000000

                             ****ORCA TERMINATED NORMALLY****
TOTAL RUN TIME: 0 days 0 hours 0 minutes 0 seconds 652 msec
