                         Program Version 6.0.1  -  RELEASE   -
|  1>  ! DEFGRID2
|  2>  ! wB97X-3c
|  3>  ! SP
|  4>  %pal
|  5> nprocs 1
|  6>  end
|  7>  %maxcore 8000
|  8>  *xyzfile            0             2  fragment.xyz
|  9>
| 10>                          ****END OF INPUT****

CARTESIAN COORDINATES (ANGSTROEM)
---------------------------------
  C     -0.011298    4.738424   -0.022901
  O      1.121640    4.128882   -0.356478
  O     -1.011401    4.225923    0.315110
  H      1.782623    4.785393   -0.593094

 Total Charge           Charge          ....    0
 Multiplicity           Mult            ....    2
 Number of Electrons    NEL             ....   17
 Basis Dimension        Dim             ....   44

ORBITAL ENERGIES
----------------
                 SPIN UP ORBITALS
  NO   OCC          E(Eh)            E(eV)
   0   1.0000      -1.279334       -34.8124
   1   1.0000      -1.205042       -32.7908
   2   1.0000      -0.789231       -21.4761
   3   1.0000      -0.657606       -17.8944
   4   1.0000      -0.617634       -16.8067
   5   1.0000      -0.603619       -16.4253
   6   1.0000      -0.529138       -14.3986
   7   1.0000      -0.482800       -13.1377
   8   1.0000      -0.353990        -9.6325
   9   0.0000       0.057733         1.5710
  10   0.0000       0.081829         2.2267
  11   0.0000       0.261877         7.1260
  12   0.0000       0.280830         7.6418
  13   0.0000       0.382934        10.4202

                 SPIN DOWN ORBITALS
  NO   OCC          E(Eh)            E(eV)
   0   1.0000      -1.264636       -34.4125
   1   1.0000      -1.189234       -32.3607
   2   1.0000      -0.776636       -21.1333
   3   1.0000      -0.617997       -16.8166
   4   1.0000      -0.597752       -16.2657
   5   1.0000      -0.594022       -16.1642
   6   1.0000      -0.486773       -13.2458
   7   1.0000      -0.477753       -13.0003
   8   0.0000      -0.019717        -0.5365
   9   0.0000       0.070202         1.9103
  10   0.0000       0.103863         2.8263
  11   0.0000       0.266390         7.2488
  12   0.0000       0.296532         8.0690

MULLIKEN ATOMIC CHARGES AND SPIN POPULATIONS
--------------------------------------------
   0 C :    0.072007    0.694499
   1 O :   -0.086277    0.087621
   2 O :   -0.145888    0.215757
   3 H :    0.160158    0.002123
Sum of atomic charges         :   -0.0000000

LOEWDIN ATOMIC CHARGES AND SPIN POPULATIONS
-------------------------------------------
   0 C :   -0.013385    0.597972
   1 O :    0.030117    0.141947
   2 O :   -0.073414    0.241451
   3 H :    0.056681    0.018629

  Mayer bond orders larger than 0.100000
B(  0-C ,  1-O ) :   1.1025 B(  0-C ,  2-O ) :   2.0619 B(  1-O ,  3-H ) :   1.0403

Dispersion correction           -0.001662076
FINAL SINGLE POINT ENERGY       -38.351370509889

DIPOLE MOMENT
-------------

Method             : SCF
Type of density    : Electron Density
Multiplicity       :   2
Irrep              :   0
Energy             :   -38.3497084339186500 Eh
Relativity type    :
Basis              : AO
                                X                 Y                 Z
Electronic contribution:     -1.013700236       0.399208110       0.304564139
Nuclear contribution   :      2.089098860       0.143570124      -0.667699132
                        -----------------------------------------
Total Dipole Moment    :      1.075398624       0.542778234      -0.363134993
                        -----------------------------------------
Magnitude (a.u.)       :      1.258156363
Magnitude (Debye)      :      3.197979328

Rotational constants in cm-1:             5.627271             0.388421             0.363342
Rotational constants in MHz :        168701.352090         11644.579479         10892.712054

                             ****ORCA TERMINATED NORMALLY****
TOTAL RUN TIME: 0 days 0 hours 0 minutes 13 seconds 644 msec
