                         Program Version 6.0.1  -  RELEASE   -
|  1>  ! DEFGRID2
|  2>  ! wB97X-3c
|  3>  ! SP
|  4>  %pal
|  5> nprocs 4
|  6>  end
|  7>  %maxcore 8000
|  8>  *xyzfile            1             2  isomer.xyz
|  9>
| 10>                          ****END OF INPUT****

CARTESIAN COORDINATES (ANGSTROEM)
---------------------------------
  C     -0.399261   -1.695701   -0.316892
  C      0.716445   -1.049043    0.384741
  C      0.033767    1.219050   -0.101464
  O      0.937787    0.355384   -0.044347
  O     -1.200893    1.040133    0.110717
  H     -0.496249   -1.603186   -1.391856
  H     -0.903600   -2.514642    0.178510
  H     -1.462820    0.107209    0.246402
  H      1.679149   -1.506213    0.150712
  H      0.601741   -1.014021    1.466576
  H      0.337550    2.231381   -0.357945

 Total Charge           Charge          ....    1
 Multiplicity           Mult            ....    2
 Number of Electrons    NEL             ....   29
 Basis Dimension        Dim             ....   95

ORBITAL ENERGIES
----------------
                 SPIN UP ORBITALS
  NO   OCC          E(Eh)            E(eV)
   0   1.0000      -1.539690       -41.8971
   1   1.0000      -1.452930       -39.5362
   2   1.0000      -1.164227       -31.6802
   3   1.0000      -1.057780       -28.7837
   4   1.0000      -1.017683       -27.6926
   5   1.0000      -0.915794       -24.9200
   6   1.0000      -0.899299       -24.4712
   7   1.0000      -0.856841       -23.3158
   8   1.0000      -0.792995       -21.5785
   9   1.0000      -0.784176       -21.3385
  10   1.0000      -0.772933       -21.0326
  11   1.0000      -0.739186       -20.1143
  12   1.0000      -0.701611       -19.0918
  13   1.0000      -0.690577       -18.7915
  14   1.0000      -0.544317       -14.8116
  15   0.0000      -0.180339        -4.9073
  16   0.0000      -0.089860        -2.4452
  17   0.0000      -0.064488        -1.7548
  18   0.0000      -0.054588        -1.4854
  19   0.0000      -0.038658        -1.0519

                 SPIN DOWN ORBITALS
  NO   OCC          E(Eh)            E(eV)
   0   1.0000      -1.538280       -41.8587
   1   1.0000      -1.451217       -39.4896
   2   1.0000      -1.154522       -31.4161
   3   1.0000      -1.048967       -28.5438
   4   1.0000      -0.998182       -27.1619
   5   1.0000      -0.913850       -24.8671
   6   1.0000      -0.893317       -24.3084
   7   1.0000      -0.851125       -23.1603
   8   1.0000      -0.782055       -21.2808
   9   1.0000      -0.778091       -21.1729
  10   1.0000      -0.767882       -20.8951
  11   1.0000      -0.731613       -19.9082
  12   1.0000      -0.694992       -18.9117
  13   1.0000      -0.685246       -18.6465
  14   0.0000      -0.213228        -5.8022
  15   0.0000      -0.179261        -4.8779
  16   0.0000      -0.084129        -2.2893
  17   0.0000      -0.061972        -1.6863
  18   0.0000      -0.052959        -1.4411

MULLIKEN ATOMIC CHARGES AND SPIN POPULATIONS
--------------------------------------------
   0 C :   -0.101457    0.969424
   1 C :    0.115030   -0.041144
   2 C :    0.365689   -0.000644
   3 O :   -0.118075    0.012401
   4 O :    0.000947    0.021394
   5 H :    0.102007   -0.012166
   6 H :    0.102359   -0.016845
   7 H :    0.208897    0.004102
   8 H :    0.119139    0.053052
   9 H :    0.101618    0.007427
  10 H :    0.103845    0.002999
Sum of atomic charges         :    1.0000000

LOEWDIN ATOMIC CHARGES AND SPIN POPULATIONS
-------------------------------------------
   0 C :    0.040257    0.754793
   1 C :    0.016326    0.050426
   2 C :    0.154210    0.002012
   3 O :    0.108996    0.015304
   4 O :    0.174057    0.024391
   5 H :    0.049159    0.036983
   6 H :    0.056591    0.034909
   7 H :    0.092590    0.033427
   8 H :    0.099691    0.039965
   9 H :    0.083893    0.005631
  10 H :    0.124230    0.002158

  Mayer bond orders larger than 0.100000
B(  0-C ,  1-C ) :   1.0793 B(  0-C ,  5-H ) :   0.9986 B(  0-C ,  6-H ) :   1.0007
B(  1-C ,  3-O ) :   0.7604 B(  1-C ,  8-H ) :   0.9715 B(  1-C ,  9-H ) :   0.9795
B(  2-C ,  3-O ) :   1.4646 B(  2-C ,  4-O ) :   1.4116 B(  2-C , 10-H ) :   1.0254
B(  4-O ,  7-H ) :   0.9613

Dispersion correction           -0.007078018
FINAL SINGLE POINT ENERGY       -52.460315006249

DIPOLE MOMENT
-------------

Method             : SCF
Type of density    : Electron Density
Multiplicity       :   2
Irrep              :   0
Energy             :   -52.4532369884228515 Eh
Relativity type    :
Basis              : AO
                                X                 Y                 Z
Electronic contribution:      0.545419034       3.394290258      -0.164212013
Nuclear contribution   :     -0.607979072      -3.580376510       0.321788324
                        -----------------------------------------
Total Dipole Moment    :     -0.062560038      -0.186086251       0.157576311
                        -----------------------------------------
Magnitude (a.u.)       :      0.251738247
Magnitude (Debye)      :      0.639867773

Rotational constants in cm-1:             0.303234             0.148466             0.109243
Rotational constants in MHz :          9090.719762          4450.894886          3275.030473

                             ****ORCA TERMINATED NORMALLY****
TOTAL RUN TIME: 0 days 0 hours 0 minutes 23 seconds 52 msec
