                         Program Version 6.0.1  -  RELEASE   -
|  1> # input to generate an atomic fitting density for C
|  2> # this file is used internally by ORCA
|  3> #
|  4> # atomic ground state (Mult=1): 1s2 2s2 2p2
|  5> #
|  6> ! ROHF def2-SVP def2/J Conv LeanSCF AODIIS SOSCF NoMulliken NoLoewdin NoMayer NoPrintMOs
|  7>
|  8> %output print[p_atomdensfit] 2 end
|  9>
| 10> %scf
| 11>   guess     HCore
| 12>   maxiter    1000
| 13>   maxdisk  500000
| 14>   diismaxeq     8
| 15>   soscfstart 1e-4
| 16>   lshift  1.000000
| 17>   ignoreconv true
| 18>
| 19>   hftyp        rohf
| 20>   rohf_case    sahf
| 21>   rohf_numop   2
| 22>   rohf_norb[1] 3
| 23>   rohf_nel[1]  2
| 24>
| 25> end
| 26>
| 27> %basis
| 28>   NewECP 6
| 29>     N_core 2
| 30>     lmax f
| 31>     s 1
| 32>       1       6.4010520000     33.1216380000  2
| 33>     p 1
| 34>       1       7.3077470000     -1.9862570000  2
| 35>     d 1
| 36>       1       5.9617960000     -9.4543180000  2
| 37>     f 1
| 38>       1       1.0000000000      0.0000000000  2
| 39>   end
| 40>   NewGTO 6
| 41>     s 4
| 42>      1       2.1749877903     -1.0510171314
| 43>      2       1.8522269465      0.9143220802
| 44>      3       0.4590984876      0.7276544844
| 45>      4       0.1691289865      0.3323492821
| 46>     s 2
| 47>      1       0.2274550226      0.5129761622
| 48>      2       0.0869185910      0.5278849008
| 49>     p 4
| 50>      1      12.8700853337      0.0256414440
| 51>      2       3.2954435830      0.1577282882
| 52>      3       0.9766457178      0.4649954785
| 53>      4       0.3484251971      0.5127544418
| 54>     p 2
| 55>      1       0.1464894811      0.6937501584
| 56>      2       0.0637339143      0.3515095650
| 57>   end
| 58>   NewAuxGTO 6
| 59>     S 1
| 60>      1 1310.72 1.0
| 61>     S 1
| 62>      1  655.36 1.0
| 63>     S 1
| 64>      1  327.68 1.0
| 65>     S 1
| 66>      1  163.84 1.0
| 67>     S 1
| 68>      1   81.82 1.0
| 69>     S 1
| 70>      1   40.96 1.0
| 71>     S 1
| 72>      1   20.48 1.0
| 73>     S 1
| 74>      1   10.24 1.0
| 75>     S 1
| 76>      1    5.12 1.0
| 77>     S 1
| 78>      1    2.56 1.0
| 79>     S 1
| 80>      1    1.28 1.0
| 81>     S 1
| 82>      1    0.64 1.0
| 83>     S 1
| 84>      1    0.32 1.0
| 85>     S 1
| 86>      1    0.16 1.0
| 87>     S 1
| 88>      1    0.08 1.0
| 89>     S 1
| 90>      1    0.04 1.0
| 91>     S 1
| 92>      1    0.02 1.0
| 93>     S 1
| 94>      1    0.01 1.0
| 95>   end
| 96> end
| 97>
| 98> * xyz 0 1
| 99> 6  0.0 0.0 0.0
|100> *
|101>
|102>
|103>                          ****END OF INPUT****

CARTESIAN COORDINATES (ANGSTROEM)
---------------------------------
  C      0.000000    0.000000    0.000000

 Total Charge           Charge          ....    0
 Multiplicity           Mult            ....    1
 Number of Electrons    NEL             ....    4
 Basis Dimension        Dim             ....    8

ORBITAL ENERGIES
----------------

  NO   OCC          E(Eh)            E(eV)
   0   2.0000      -0.730821       -19.8866
   1   0.6667      -0.376015       -10.2319
   2   0.6667      -0.376015       -10.2319
   3   0.6667      -0.376015       -10.2319
   4   0.0000       0.072576         1.9749
   5   0.0000       0.072576         1.9749
   6   0.0000       0.072576         1.9749
   7   0.0000       0.489951        13.3323

FINAL SINGLE POINT ENERGY        -5.249708972213

DIPOLE MOMENT
-------------

Method             : SCF
Type of density    : Electron Density
Multiplicity       :   1
Irrep              :   0
Energy             :    -5.2497089722130656 Eh
Relativity type    :
Basis              : AO
                                X                 Y                 Z
Electronic contribution:     -0.000000000      -0.000000000      -0.000000000
Nuclear contribution   :      0.000000000       0.000000000       0.000000000
                        -----------------------------------------
Total Dipole Moment    :     -0.000000000      -0.000000000      -0.000000000
                        -----------------------------------------
Magnitude (a.u.)       :      0.000000000
Magnitude (Debye)      :      0.000000000

Rotational constants in cm-1:             0.000000             0.000000             0.000000
Rotational constants in MHz :             0.000000             0.000000             0.000000

                             ****ORCA TERMINATED NORMALLY****
TOTAL RUN TIME: 0 days 0 hours 0 minutes 0 seconds 428 msec
