                         Program Version 6.0.1  -  RELEASE   -
|  1>  ! DEFGRID2
|  2>  ! wB97X-3c
|  3>  ! SP
|  4>  %pal
|  5> nprocs 4
|  6>  end
|  7>  %maxcore 8000
|  8>  *xyzfile            1             2  isomer.xyz
|  9>
| 10>                          ****END OF INPUT****

CARTESIAN COORDINATES (ANGSTROEM)
---------------------------------
  C      0.208966   -2.118598   -0.580783
  C      0.309662   -1.071153    0.467230
  C      0.018541    1.302148   -0.182264
  O      0.648397    0.270979   -0.245144
  O     -1.042035    1.541695    0.464306
  H      1.135128   -2.214089   -1.140854
  H      0.029789   -3.060775   -0.061619
  H     -0.623420   -1.942682   -1.256672
  H      1.159201   -1.172095    1.133978
  H     -0.606806   -0.868266    1.012429
  H     -1.377663    2.449604    0.369310

 Total Charge           Charge          ....    1
 Multiplicity           Mult            ....    2
 Number of Electrons    NEL             ....   29
 Basis Dimension        Dim             ....   95

ORBITAL ENERGIES
----------------
                 SPIN UP ORBITALS
  NO   OCC          E(Eh)            E(eV)
   0   1.0000      -1.546775       -42.0899
   1   1.0000      -1.471892       -40.0522
   2   1.0000      -1.146326       -31.1931
   3   1.0000      -1.046397       -28.4739
   4   1.0000      -0.997237       -27.1362
   5   1.0000      -0.899546       -24.4779
   6   1.0000      -0.892590       -24.2886
   7   1.0000      -0.865555       -23.5529
   8   1.0000      -0.803338       -21.8599
   9   1.0000      -0.766539       -20.8586
  10   1.0000      -0.739327       -20.1181
  11   1.0000      -0.689415       -18.7599
  12   1.0000      -0.688811       -18.7435
  13   1.0000      -0.655899       -17.8479
  14   1.0000      -0.618185       -16.8217
  15   0.0000      -0.167710        -4.5636
  16   0.0000      -0.111746        -3.0408
  17   0.0000      -0.058642        -1.5957
  18   0.0000      -0.051025        -1.3885
  19   0.0000      -0.024063        -0.6548

                 SPIN DOWN ORBITALS
  NO   OCC          E(Eh)            E(eV)
   0   1.0000      -1.535706       -41.7887
   1   1.0000      -1.462876       -39.8069
   2   1.0000      -1.138986       -30.9934
   3   1.0000      -1.037152       -28.2224
   4   1.0000      -0.988800       -26.9066
   5   1.0000      -0.893180       -24.3047
   6   1.0000      -0.862755       -23.4768
   7   1.0000      -0.844631       -22.9836
   8   1.0000      -0.794017       -21.6063
   9   1.0000      -0.756598       -20.5881
  10   1.0000      -0.735874       -20.0242
  11   1.0000      -0.687536       -18.7088
  12   1.0000      -0.681926       -18.5562
  13   1.0000      -0.654847       -17.8193
  14   0.0000      -0.269121        -7.3231
  15   0.0000      -0.140361        -3.8194
  16   0.0000      -0.108054        -2.9403
  17   0.0000      -0.054378        -1.4797
  18   0.0000      -0.039896        -1.0856

MULLIKEN ATOMIC CHARGES AND SPIN POPULATIONS
--------------------------------------------
   0 C :   -0.016793   -0.001271
   1 C :    0.106666    0.071155
   2 C :    0.229176    0.859411
   3 O :   -0.039784   -0.001600
   4 O :    0.050825    0.072841
   5 H :    0.079637    0.001112
   6 H :    0.087274    0.005486
   7 H :    0.066022    0.000323
   8 H :    0.103658   -0.001167
   9 H :    0.096161    0.000722
  10 H :    0.237157   -0.007011
Sum of atomic charges         :    1.0000000

LOEWDIN ATOMIC CHARGES AND SPIN POPULATIONS
-------------------------------------------
   0 C :   -0.071221    0.003377
   1 C :    0.086269    0.056939
   2 C :    0.186592    0.711681
   3 O :    0.114734    0.078979
   4 O :    0.158286    0.130396
   5 H :    0.072899    0.000583
   6 H :    0.086940    0.004102
   7 H :    0.066364    0.000323
   8 H :    0.085242    0.001788
   9 H :    0.070200    0.004509
  10 H :    0.143696    0.007322

  Mayer bond orders larger than 0.100000
B(  0-C ,  1-C ) :   1.0207 B(  0-C ,  5-H ) :   0.9765 B(  0-C ,  6-H ) :   0.9576
B(  0-C ,  7-H ) :   0.9795 B(  1-C ,  3-O ) :   0.6428 B(  1-C ,  8-H ) :   0.9906
B(  1-C ,  9-H ) :   0.9928 B(  2-C ,  3-O ) :   1.6243 B(  2-C ,  4-O ) :   1.3504
B(  4-O , 10-H ) :   0.9869

Dispersion correction           -0.006335578
FINAL SINGLE POINT ENERGY       -52.450733168937

DIPOLE MOMENT
-------------

Method             : SCF
Type of density    : Electron Density
Multiplicity       :   2
Irrep              :   0
Energy             :   -52.4443975905872222 Eh
Relativity type    :
Basis              : AO
                                X                 Y                 Z
Electronic contribution:      0.278813801       6.957203760      -0.007359243
Nuclear contribution   :     -0.838091131      -6.172786268       0.347879461
                        -----------------------------------------
Total Dipole Moment    :     -0.559277329       0.784417492       0.340520218
                        -----------------------------------------
Magnitude (a.u.)       :      1.021790561
Magnitude (Debye)      :      2.597185206

Rotational constants in cm-1:             0.494542             0.094221             0.088629
Rotational constants in MHz :         14825.982441          2824.667050          2657.036887

                             ****ORCA TERMINATED NORMALLY****
TOTAL RUN TIME: 0 days 0 hours 0 minutes 22 seconds 210 msec
