                         Program Version 6.0.1  -  RELEASE   -
|  1>  ! DEFGRID2
|  2>  ! wB97X-3c
|  3>  ! SP
|  4>  %pal
|  5> nprocs 1
|  6>  end
|  7>  %maxcore 8000
|  8>  *xyzfile            0             2  fragment.xyz
|  9>
| 10>                          ****END OF INPUT****

CARTESIAN COORDINATES (ANGSTROEM)
---------------------------------
  C     -4.457352    6.396045    0.229425
  O     -3.419088    5.857361    0.168247
  H     -4.575811    7.502108    0.333281

 Total Charge           Charge          ....    0
 Multiplicity           Mult            ....    2
 Number of Electrons    NEL             ....   11
 Basis Dimension        Dim             ....   31

ORBITAL ENERGIES
----------------
                 SPIN UP ORBITALS
  NO   OCC          E(Eh)            E(eV)
   0   1.0000      -1.243388       -33.8343
   1   1.0000      -0.750245       -20.4152
   2   1.0000      -0.627067       -17.0634
   3   1.0000      -0.566143       -15.4055
   4   1.0000      -0.557468       -15.1695
   5   1.0000      -0.331477        -9.0199
   6   0.0000       0.037934         1.0322
   7   0.0000       0.094621         2.5748
   8   0.0000       0.218867         5.9557
   9   0.0000       0.376404        10.2425
  10   0.0000       0.395196        10.7538

                 SPIN DOWN ORBITALS
  NO   OCC          E(Eh)            E(eV)
   0   1.0000      -1.226256       -33.3681
   1   1.0000      -0.718793       -19.5594
   2   1.0000      -0.600659       -16.3448
   3   1.0000      -0.548071       -14.9138
   4   1.0000      -0.507690       -13.8149
   5   0.0000       0.006356         0.1729
   6   0.0000       0.052903         1.4396
   7   0.0000       0.101432         2.7601
   8   0.0000       0.222907         6.0656
   9   0.0000       0.403543        10.9810

MULLIKEN ATOMIC CHARGES AND SPIN POPULATIONS
--------------------------------------------
   0 C :    0.024336    0.627078
   1 O :   -0.102383    0.247374
   2 H :    0.078047    0.125548
Sum of atomic charges         :    0.0000000

LOEWDIN ATOMIC CHARGES AND SPIN POPULATIONS
-------------------------------------------
   0 C :    0.033251    0.611465
   1 O :   -0.053664    0.280703
   2 H :    0.020413    0.107832

  Mayer bond orders larger than 0.100000
B(  0-C ,  1-O ) :   2.1440 B(  0-C ,  2-H ) :   0.9790

Dispersion correction           -0.000810728
FINAL SINGLE POINT ENERGY       -22.270259760278

DIPOLE MOMENT
-------------

Method             : SCF
Type of density    : Electron Density
Multiplicity       :   2
Irrep              :   0
Energy             :   -22.2694490321555563 Eh
Relativity type    :
Basis              : AO
                                X                 Y                 Z
Electronic contribution:     -0.081275166      -0.702429314      -0.064254349
Nuclear contribution   :     -0.265501531       1.357478047       0.128760599
                        -----------------------------------------
Total Dipole Moment    :     -0.346776697       0.655048733       0.064506250
                        -----------------------------------------
Magnitude (a.u.)       :      0.743978479
Magnitude (Debye)      :      1.891043009

Rotational constants in cm-1:            23.748815             1.510774             1.420415
Rotational constants in MHz :        711971.559113         45291.874638         42582.970686

                             ****ORCA TERMINATED NORMALLY****
TOTAL RUN TIME: 0 days 0 hours 0 minutes 5 seconds 666 msec
