                         Program Version 6.0.1  -  RELEASE   -
|  1>  ! DEFGRID2
|  2>  ! wB97X-3c
|  3>  ! SP
|  4>  %pal
|  5> nprocs 1
|  6>  end
|  7>  %maxcore 8000
|  8>  *xyzfile            0             2  fragment.xyz
|  9>
| 10>                          ****END OF INPUT****

CARTESIAN COORDINATES (ANGSTROEM)
---------------------------------
  C      1.882811   -0.206430    0.211400
  C      0.524902    1.661989   -0.048921
  O      1.749552    1.109309   -0.095354
  O     -0.476229    1.086903    0.244475
  H      2.891156   -0.571863    0.149200
  H      1.007285   -0.766959    0.488567
  H      0.594255    2.717626   -0.321797

 Total Charge           Charge          ....    0
 Multiplicity           Mult            ....    2
 Number of Electrons    NEL             ....   23
 Basis Dimension        Dim             ....   67

ORBITAL ENERGIES
----------------
                 SPIN UP ORBITALS
  NO   OCC          E(Eh)            E(eV)
   0   1.0000      -1.275606       -34.7110
   1   1.0000      -1.178540       -32.0697
   2   1.0000      -0.891860       -24.2687
   3   1.0000      -0.725639       -19.7456
   4   1.0000      -0.687434       -18.7060
   5   1.0000      -0.616989       -16.7891
   6   1.0000      -0.615399       -16.7458
   7   1.0000      -0.573006       -15.5923
   8   1.0000      -0.499677       -13.5969
   9   1.0000      -0.492878       -13.4119
  10   1.0000      -0.421134       -11.4596
  11   1.0000      -0.314767        -8.5652
  12   0.0000       0.074252         2.0205
  13   0.0000       0.095596         2.6013
  14   0.0000       0.104962         2.8562
  15   0.0000       0.135759         3.6942
  16   0.0000       0.192680         5.2431

                 SPIN DOWN ORBITALS
  NO   OCC          E(Eh)            E(eV)
   0   1.0000      -1.269997       -34.5584
   1   1.0000      -1.174780       -31.9674
   2   1.0000      -0.871448       -23.7133
   3   1.0000      -0.708262       -19.2728
   4   1.0000      -0.682763       -18.5789
   5   1.0000      -0.612456       -16.6658
   6   1.0000      -0.596132       -16.2216
   7   1.0000      -0.566991       -15.4286
   8   1.0000      -0.494613       -13.4591
   9   1.0000      -0.474145       -12.9021
  10   1.0000      -0.419613       -11.4182
  11   0.0000       0.007790         0.2120
  12   0.0000       0.095075         2.5871
  13   0.0000       0.097473         2.6524
  14   0.0000       0.109046         2.9673
  15   0.0000       0.138655         3.7730

MULLIKEN ATOMIC CHARGES AND SPIN POPULATIONS
--------------------------------------------
   0 C :    0.044791    0.955451
   1 C :    0.311510    0.026725
   2 O :   -0.190925    0.011898
   3 O :   -0.303094    0.047407
   4 H :    0.048227   -0.020090
   5 H :    0.061111   -0.018634
   6 H :    0.028380   -0.002758
Sum of atomic charges         :    0.0000000

LOEWDIN ATOMIC CHARGES AND SPIN POPULATIONS
-------------------------------------------
   0 C :    0.015131    0.773906
   1 C :   -0.007420    0.036196
   2 O :    0.006932    0.069898
   3 O :   -0.116855    0.041382
   4 H :    0.026491    0.038076
   5 H :    0.019956    0.039334
   6 H :    0.055765    0.001208

  Mayer bond orders larger than 0.100000
B(  0-C ,  2-O ) :   1.0468 B(  0-C ,  4-H ) :   1.0318 B(  0-C ,  5-H ) :   1.0231
B(  1-C ,  2-O ) :   1.0965 B(  1-C ,  3-O ) :   1.9444 B(  1-C ,  6-H ) :   1.0306

Dispersion correction           -0.004296506
FINAL SINGLE POINT ENERGY       -45.241893685895

DIPOLE MOMENT
-------------

Method             : SCF
Type of density    : Electron Density
Multiplicity       :   2
Irrep              :   0
Energy             :   -45.2375971798343315 Eh
Relativity type    :
Basis              : AO
                                X                 Y                 Z
Electronic contribution:     -0.836210739       1.365855047      -0.217533022
Nuclear contribution   :      1.509152671      -1.248439542       0.088786968
                        -----------------------------------------
Total Dipole Moment    :      0.672941932       0.117415505      -0.128746053
                        -----------------------------------------
Magnitude (a.u.)       :      0.695135089
Magnitude (Debye)      :      1.766892978

Rotational constants in cm-1:             0.792851             0.237833             0.182952
Rotational constants in MHz :         23769.087661          7130.043065          5484.774085

                             ****ORCA TERMINATED NORMALLY****
TOTAL RUN TIME: 0 days 0 hours 0 minutes 34 seconds 363 msec
