                         Program Version 6.0.1  -  RELEASE   -
|  1>  ! DEFGRID2
|  2>  ! wB97X-3c
|  3>  ! SP
|  4>  %pal
|  5> nprocs 1
|  6>  end
|  7>  %maxcore 8000
|  8>  *xyzfile            0             2  fragment.xyz
|  9>
| 10>                          ****END OF INPUT****

CARTESIAN COORDINATES (ANGSTROEM)
---------------------------------
  C      0.848916   -3.713384   -0.414037
  C      1.596796   -2.574579    0.236917
  O      1.125601   -1.328802   -0.040593
  H      0.877668   -3.620018   -1.498170
  H      1.293572   -4.669289   -0.138813
  H     -0.193248   -3.715104   -0.099697
  H      2.666419   -2.578577   -0.025746
  H      1.611071   -2.666767    1.334734

 Total Charge           Charge          ....    0
 Multiplicity           Mult            ....    2
 Number of Electrons    NEL             ....   19
 Basis Dimension        Dim             ....   64

ORBITAL ENERGIES
----------------
                 SPIN UP ORBITALS
  NO   OCC          E(Eh)            E(eV)
   0   1.0000      -1.158607       -31.5273
   1   1.0000      -0.887812       -24.1586
   2   1.0000      -0.748343       -20.3634
   3   1.0000      -0.622472       -16.9383
   4   1.0000      -0.583901       -15.8888
   5   1.0000      -0.543669       -14.7940
   6   1.0000      -0.509349       -13.8601
   7   1.0000      -0.497615       -13.5408
   8   1.0000      -0.430985       -11.7277
   9   1.0000      -0.401813       -10.9339
  10   0.0000       0.088767         2.4155
  11   0.0000       0.113799         3.0966
  12   0.0000       0.118780         3.2322
  13   0.0000       0.140369         3.8196
  14   0.0000       0.169135         4.6024

                 SPIN DOWN ORBITALS
  NO   OCC          E(Eh)            E(eV)
   0   1.0000      -1.108282       -30.1579
   1   1.0000      -0.878333       -23.9007
   2   1.0000      -0.733831       -19.9685
   3   1.0000      -0.587347       -15.9825
   4   1.0000      -0.572279       -15.5725
   5   1.0000      -0.532898       -14.5009
   6   1.0000      -0.490747       -13.3539
   7   1.0000      -0.479661       -13.0523
   8   1.0000      -0.381219       -10.3735
   9   0.0000      -0.043269        -1.1774
  10   0.0000       0.089490         2.4351
  11   0.0000       0.114404         3.1131
  12   0.0000       0.120171         3.2700
  13   0.0000       0.140568         3.8250

MULLIKEN ATOMIC CHARGES AND SPIN POPULATIONS
--------------------------------------------
   0 C :   -0.066303   -0.000571
   1 C :    0.092736   -0.033598
   2 O :   -0.247922    0.894883
   3 H :    0.041114    0.001443
   4 H :    0.032581   -0.001403
   5 H :    0.040788    0.001327
   6 H :    0.052952    0.067816
   7 H :    0.054053    0.070104
Sum of atomic charges         :    0.0000000

LOEWDIN ATOMIC CHARGES AND SPIN POPULATIONS
-------------------------------------------
   0 C :   -0.113906   -0.001596
   1 C :   -0.097163    0.048264
   2 O :   -0.063834    0.857015
   3 H :    0.047162    0.000502
   4 H :    0.047478   -0.001355
   5 H :    0.047178    0.000462
   6 H :    0.066014    0.047514
   7 H :    0.067071    0.049193

  Mayer bond orders larger than 0.100000
B(  0-C ,  1-C ) :   0.9915 B(  0-C ,  3-H ) :   0.9886 B(  0-C ,  4-H ) :   0.9905
B(  0-C ,  5-H ) :   0.9888 B(  1-C ,  2-O ) :   1.0775 B(  1-C ,  6-H ) :   0.9539
B(  1-C ,  7-H ) :   0.9523

Dispersion correction           -0.004028238
FINAL SINGLE POINT ENERGY       -30.394377519519

DIPOLE MOMENT
-------------

Method             : SCF
Type of density    : Electron Density
Multiplicity       :   2
Irrep              :   0
Energy             :   -30.3903492816258627 Eh
Relativity type    :
Basis              : AO
                                X                 Y                 Z
Electronic contribution:      0.023986631       3.416696976       0.240830647
Nuclear contribution   :      0.290523803      -4.221137435      -0.051203459
                        -----------------------------------------
Total Dipole Moment    :      0.314510434      -0.804440459       0.189627187
                        -----------------------------------------
Magnitude (a.u.)       :      0.884307489
Magnitude (Debye)      :      2.247731007

Rotational constants in cm-1:             1.339125             0.323327             0.287703
Rotational constants in MHz :         40145.967733          9693.102013          8625.121168

                             ****ORCA TERMINATED NORMALLY****
TOTAL RUN TIME: 0 days 0 hours 0 minutes 32 seconds 413 msec
