                         Program Version 6.0.1  -  RELEASE   -
|  1>  ! DEFGRID2
|  2>  ! wB97X-3c
|  3>  ! SP
|  4>  %pal
|  5> nprocs 4
|  6>  end
|  7>  %maxcore 8000
|  8>  *xyzfile            1             2  isomer.xyz
|  9>
| 10>                          ****END OF INPUT****

CARTESIAN COORDINATES (ANGSTROEM)
---------------------------------
  C      0.655692   -2.317599   -0.136903
  C      0.010863   -1.086702    0.005154
  C      0.066067    1.332647    0.101586
  O      0.711896   -0.032608    0.020165
  O     -1.209897    1.250604    0.502617
  H      1.733054   -2.355564   -0.229639
  H      0.073794   -3.228013   -0.154565
  H      0.137150    1.681600   -0.925243
  H     -1.067954   -0.997595    0.105283
  H     -1.320363    1.444195    1.438456
  H      0.739442    1.864544    0.767283

 Total Charge           Charge          ....    1
 Multiplicity           Mult            ....    2
 Number of Electrons    NEL             ....   29
 Basis Dimension        Dim             ....   95

ORBITAL ENERGIES
----------------
                 SPIN UP ORBITALS
  NO   OCC          E(Eh)            E(eV)
   0   1.0000      -1.484143       -40.3856
   1   1.0000      -1.388972       -37.7958
   2   1.0000      -1.159853       -31.5612
   3   1.0000      -1.053816       -28.6758
   4   1.0000      -0.955311       -25.9953
   5   1.0000      -0.905773       -24.6473
   6   1.0000      -0.868447       -23.6316
   7   1.0000      -0.845172       -22.9983
   8   1.0000      -0.807756       -21.9802
   9   1.0000      -0.766886       -20.8680
  10   1.0000      -0.760184       -20.6856
  11   1.0000      -0.712315       -19.3831
  12   1.0000      -0.667109       -18.1530
  13   1.0000      -0.642636       -17.4870
  14   1.0000      -0.599950       -16.3255
  15   0.0000      -0.155609        -4.2343
  16   0.0000      -0.084679        -2.3042
  17   0.0000      -0.059847        -1.6285
  18   0.0000      -0.050188        -1.3657
  19   0.0000      -0.029852        -0.8123

                 SPIN DOWN ORBITALS
  NO   OCC          E(Eh)            E(eV)
   0   1.0000      -1.472037       -40.0562
   1   1.0000      -1.387404       -37.7532
   2   1.0000      -1.136788       -30.9336
   3   1.0000      -1.042292       -28.3622
   4   1.0000      -0.948181       -25.8013
   5   1.0000      -0.902295       -24.5527
   6   1.0000      -0.863090       -23.4859
   7   1.0000      -0.827157       -22.5081
   8   1.0000      -0.798628       -21.7318
   9   1.0000      -0.759168       -20.6580
  10   1.0000      -0.736261       -20.0347
  11   1.0000      -0.704274       -19.1643
  12   1.0000      -0.661475       -17.9996
  13   1.0000      -0.638788       -17.3823
  14   0.0000      -0.291187        -7.9236
  15   0.0000      -0.106285        -2.8922
  16   0.0000      -0.084225        -2.2919
  17   0.0000      -0.056398        -1.5347
  18   0.0000      -0.049199        -1.3388

MULLIKEN ATOMIC CHARGES AND SPIN POPULATIONS
--------------------------------------------
   0 C :    0.143764    0.692569
   1 C :    0.233943    0.089204
   2 C :    0.273068   -0.005636
   3 O :   -0.121171    0.234620
   4 O :   -0.210948   -0.001035
   5 H :    0.097986   -0.012300
   6 H :    0.101576   -0.011237
   7 H :    0.106238    0.011166
   8 H :    0.087405   -0.003051
   9 H :    0.191466    0.000438
  10 H :    0.096673    0.005262
Sum of atomic charges         :    1.0000000

LOEWDIN ATOMIC CHARGES AND SPIN POPULATIONS
-------------------------------------------
   0 C :    0.192970    0.578319
   1 C :    0.103985    0.134643
   2 C :    0.069828    0.002994
   3 O :    0.102922    0.234514
   4 O :    0.030071   -0.001197
   5 H :    0.082965    0.018266
   6 H :    0.082791    0.020288
   7 H :    0.091107    0.007445
   8 H :    0.081038    0.001321
   9 H :    0.078341    0.000266
  10 H :    0.083981    0.003141

  Mayer bond orders larger than 0.100000
B(  0-C ,  1-C ) :   1.4041 B(  0-C ,  5-H ) :   0.9940 B(  0-C ,  6-H ) :   0.9953
B(  1-C ,  3-O ) :   1.4430 B(  1-C ,  8-H ) :   1.0067 B(  2-C ,  3-O ) :   0.7399
B(  2-C ,  4-O ) :   1.1209 B(  2-C ,  7-H ) :   0.9896 B(  2-C , 10-H ) :   0.9949
B(  4-O ,  9-H ) :   1.0296

Dispersion correction           -0.006526063
FINAL SINGLE POINT ENERGY       -52.467804786963

DIPOLE MOMENT
-------------

Method             : SCF
Type of density    : Electron Density
Multiplicity       :   2
Irrep              :   0
Energy             :   -52.4612787244408239 Eh
Relativity type    :
Basis              : AO
                                X                 Y                 Z
Electronic contribution:      0.670181888      -1.316032748      -0.350190516
Nuclear contribution   :     -0.415378053       0.501016057       0.695960527
                        -----------------------------------------
Total Dipole Moment    :      0.254803835      -0.815016692       0.345770010
                        -----------------------------------------
Magnitude (a.u.)       :      0.921267660
Magnitude (Debye)      :      2.341676297

Rotational constants in cm-1:             0.554470             0.097746             0.085397
Rotational constants in MHz :         16622.589245          2930.351988          2560.136193

                             ****ORCA TERMINATED NORMALLY****
TOTAL RUN TIME: 0 days 0 hours 0 minutes 22 seconds 288 msec
