                         Program Version 6.0.1  -  RELEASE   -
|  1>  ! DEFGRID2
|  2>  ! wB97X-3c
|  3>  ! SP
|  4>  %pal
|  5> nprocs 1
|  6>  end
|  7>  %maxcore 8000
|  8>  *xyzfile            0             1  fragment.xyz
|  9>
| 10>                          ****END OF INPUT****

CARTESIAN COORDINATES (ANGSTROEM)
---------------------------------
  C     -0.879407    3.209836    0.017416
  O     -1.997713    2.784365    0.038184
  H     -0.323457    3.418658    0.945598
  H     -0.354137    3.408811   -0.930580

 Total Charge           Charge          ....    0
 Multiplicity           Mult            ....    1
 Number of Electrons    NEL             ....   12
 Basis Dimension        Dim             ....   36

ORBITAL ENERGIES
----------------

  NO   OCC          E(Eh)            E(eV)
   0   2.0000      -1.194323       -32.4992
   1   2.0000      -0.766839       -20.8667
   2   2.0000      -0.624678       -16.9984
   3   2.0000      -0.571687       -15.5564
   4   2.0000      -0.521200       -14.1826
   5   2.0000      -0.385239       -10.4829
   6   0.0000       0.038557         1.0492
   7   0.0000       0.090020         2.4496
   8   0.0000       0.128774         3.5041
   9   0.0000       0.211545         5.7564
  10   0.0000       0.392577        10.6826

MULLIKEN ATOMIC CHARGES
-----------------------
   0 C :    0.198041
   1 O :   -0.252863
   2 H :    0.027407
   3 H :    0.027415
Sum of atomic charges:   -0.0000000

LOEWDIN ATOMIC CHARGES
----------------------
   0 C :    0.040619
   1 O :   -0.106770
   2 H :    0.033072
   3 H :    0.033079

  Mayer bond orders larger than 0.100000
B(  0-C ,  1-O ) :   1.9983 B(  0-C ,  2-H ) :   0.9948 B(  0-C ,  3-H ) :   0.9948

Dispersion correction           -0.001189964
FINAL SINGLE POINT ENERGY       -22.926512161147

DIPOLE MOMENT
-------------

Method             : SCF
Type of density    : Electron Density
Multiplicity       :   1
Irrep              :   0
Energy             :   -22.9253221976206198 Eh
Relativity type    :
Basis              : AO
                                X                 Y                 Z
Electronic contribution:     -1.094973409      -0.413225997       0.020021496
Nuclear contribution   :      2.052861450       0.777008683      -0.037824710
                        -----------------------------------------
Total Dipole Moment    :      0.957888041       0.363782686      -0.017803214
                        -----------------------------------------
Magnitude (a.u.)       :      1.024794758
Magnitude (Debye)      :      2.604821266

Rotational constants in cm-1:             9.499251             1.315247             1.155288
Rotational constants in MHz :        284780.377998         39430.101211         34634.677190

                             ****ORCA TERMINATED NORMALLY****
TOTAL RUN TIME: 0 days 0 hours 0 minutes 6 seconds 722 msec
