                         Program Version 6.0.1  -  RELEASE   -
|  1>  ! DEFGRID2
|  2>  ! wB97X-3c
|  3>  ! SP
|  4>  %pal
|  5> nprocs 1
|  6>  end
|  7>  %maxcore 8000
|  8>  *xyzfile            1             1  fragment.xyz
|  9>
| 10>                          ****END OF INPUT****

CARTESIAN COORDINATES (ANGSTROEM)
---------------------------------
  C     -2.196853   -3.197968   -0.087976
  C     -0.843817   -2.693827   -0.033960
  O     -0.516517   -1.502118    0.170852
  H     -2.328474   -3.680481   -1.062086
  H     -2.278292   -4.008952    0.642584
  H     -2.960481   -2.443656    0.078299
  H      0.013051   -3.350688   -0.177598
  H     -1.254084   -0.879767    0.304163

 Total Charge           Charge          ....    1
 Multiplicity           Mult            ....    1
 Number of Electrons    NEL             ....   18
 Basis Dimension        Dim             ....   64

ORBITAL ENERGIES
----------------

  NO   OCC          E(Eh)            E(eV)
   0   2.0000      -1.530452       -41.6457
   1   2.0000      -1.170356       -31.8470
   2   2.0000      -1.069332       -29.0980
   3   2.0000      -0.909804       -24.7570
   4   2.0000      -0.884843       -24.0778
   5   2.0000      -0.843434       -22.9510
   6   2.0000      -0.755779       -20.5658
   7   2.0000      -0.748978       -20.3807
   8   2.0000      -0.739991       -20.1362
   9   0.0000      -0.233870        -6.3639
  10   0.0000      -0.121221        -3.2986
  11   0.0000      -0.085541        -2.3277
  12   0.0000      -0.056747        -1.5442
  13   0.0000      -0.032522        -0.8850

MULLIKEN ATOMIC CHARGES
-----------------------
   0 C :   -0.015067
   1 C :    0.262719
   2 O :    0.082492
   3 H :    0.127179
   4 H :    0.126679
   5 H :    0.087855
   6 H :    0.102165
   7 H :    0.225977
Sum of atomic charges:    1.0000000

LOEWDIN ATOMIC CHARGES
----------------------
   0 C :   -0.033595
   1 C :    0.242086
   2 O :    0.216818
   3 H :    0.115875
   4 H :    0.115321
   5 H :    0.084209
   6 H :    0.117315
   7 H :    0.141972

  Mayer bond orders larger than 0.100000
B(  0-C ,  1-C ) :   1.1036 B(  0-C ,  3-H ) :   0.9178 B(  0-C ,  4-H ) :   0.9192
B(  0-C ,  5-H ) :   0.9684 B(  1-C ,  2-O ) :   1.5096 B(  1-C ,  6-H ) :   1.0105
B(  2-O ,  7-H ) :   0.9799

Dispersion correction           -0.003193328
FINAL SINGLE POINT ENERGY       -30.158091464071

DIPOLE MOMENT
-------------

Method             : SCF
Type of density    : Electron Density
Multiplicity       :   1
Irrep              :   0
Energy             :   -30.1548981365172537 Eh
Relativity type    :
Basis              : AO
                                X                 Y                 Z
Electronic contribution:      2.218199960       1.389375251       0.195923671
Nuclear contribution   :     -2.726130269      -1.637703279      -0.228792897
                        -----------------------------------------
Total Dipole Moment    :     -0.507930309      -0.248328028      -0.032869226
                        -----------------------------------------
Magnitude (a.u.)       :      0.566339469
Magnitude (Debye)      :      1.439520530

Rotational constants in cm-1:             1.682440             0.331913             0.291813
Rotational constants in MHz :         50438.290734          9950.504283          8748.332363

                             ****ORCA TERMINATED NORMALLY****
TOTAL RUN TIME: 0 days 0 hours 0 minutes 26 seconds 721 msec
