                         Program Version 6.0.1  -  RELEASE   -
|  1>  ! DEFGRID2
|  2>  ! wB97X-3c
|  3>  ! SP
|  4>  %pal
|  5> nprocs 1
|  6>  end
|  7>  %maxcore 8000
|  8>  *xyzfile            0             2  fragment.xyz
|  9>
| 10>                          ****END OF INPUT****

CARTESIAN COORDINATES (ANGSTROEM)
---------------------------------
  C     -0.684641   -3.824884   -0.559401
  C      0.109946   -3.453092    0.630806
  H     -0.110043   -3.715062   -1.478987
  H     -1.009352   -4.871377   -0.517702
  H     -1.587528   -3.221223   -0.648183
  H      1.173760   -3.640672    0.669748
  H     -0.371225   -3.115237    1.537830

 Total Charge           Charge          ....    0
 Multiplicity           Mult            ....    2
 Number of Electrons    NEL             ....   13
 Basis Dimension        Dim             ....   51

ORBITAL ENERGIES
----------------
                 SPIN UP ORBITALS
  NO   OCC          E(Eh)            E(eV)
   0   1.0000      -0.897697       -24.4276
   1   1.0000      -0.738893       -20.1063
   2   1.0000      -0.568694       -15.4749
   3   1.0000      -0.529365       -14.4048
   4   1.0000      -0.504305       -13.7228
   5   1.0000      -0.465195       -12.6586
   6   1.0000      -0.303919        -8.2700
   7   0.0000       0.096458         2.6248
   8   0.0000       0.118368         3.2210
   9   0.0000       0.126041         3.4298
  10   0.0000       0.145685         3.9643
  11   0.0000       0.177239         4.8229

                 SPIN DOWN ORBITALS
  NO   OCC          E(Eh)            E(eV)
   0   1.0000      -0.880150       -23.9501
   1   1.0000      -0.712010       -19.3748
   2   1.0000      -0.561532       -15.2801
   3   1.0000      -0.510731       -13.8977
   4   1.0000      -0.494858       -13.4658
   5   1.0000      -0.459839       -12.5129
   6   0.0000       0.035223         0.9585
   7   0.0000       0.098298         2.6748
   8   0.0000       0.123085         3.3493
   9   0.0000       0.127561         3.4711
  10   0.0000       0.147546         4.0149

MULLIKEN ATOMIC CHARGES AND SPIN POPULATIONS
--------------------------------------------
   0 C :   -0.074266   -0.064963
   1 C :   -0.114332    1.022907
   2 H :    0.038548    0.012653
   3 H :    0.044304    0.054710
   4 H :    0.038717    0.012198
   5 H :    0.033647   -0.018728
   6 H :    0.033381   -0.018777
Sum of atomic charges         :   -0.0000000

LOEWDIN ATOMIC CHARGES AND SPIN POPULATIONS
-------------------------------------------
   0 C :   -0.145861    0.041284
   1 C :   -0.029534    0.814347
   2 H :    0.048790    0.009192
   3 H :    0.050366    0.044923
   4 H :    0.048724    0.008810
   5 H :    0.013789    0.040713
   6 H :    0.013727    0.040730

  Mayer bond orders larger than 0.100000
B(  0-C ,  1-C ) :   1.0453 B(  0-C ,  2-H ) :   0.9871 B(  0-C ,  3-H ) :   0.9689
B(  0-C ,  4-H ) :   0.9872 B(  1-C ,  5-H ) :   1.0233 B(  1-C ,  6-H ) :   1.0234

Dispersion correction           -0.002959241
FINAL SINGLE POINT ENERGY       -14.345420496150

DIPOLE MOMENT
-------------

Method             : SCF
Type of density    : Electron Density
Multiplicity       :   2
Irrep              :   0
Energy             :   -14.3424612556086792 Eh
Relativity type    :
Basis              : AO
                                X                 Y                 Z
Electronic contribution:      0.414139111       0.301407843       0.560164227
Nuclear contribution   :     -0.485258853      -0.382510838      -0.638993412
                        -----------------------------------------
Total Dipole Moment    :     -0.071119742      -0.081102995      -0.078829185
                        -----------------------------------------
Magnitude (a.u.)       :      0.133602971
Magnitude (Debye)      :      0.339591765

Rotational constants in cm-1:             3.481790             0.766524             0.710194
Rotational constants in MHz :        104381.446355         22979.807329         21291.088070

                             ****ORCA TERMINATED NORMALLY****
TOTAL RUN TIME: 0 days 0 hours 0 minutes 18 seconds 845 msec
