                         Program Version 6.0.1  -  RELEASE   -
|  1>  ! DEFGRID2
|  2>  ! wB97X-3c
|  3>  ! LOOSEOPT
|  4>  %pal
|  5> nprocs 4
|  6>  end
|  7>  %maxcore 8000
|  8>  *xyzfile            1             2  isomer.xyz
|  9>
| 10>                          ****END OF INPUT****
 Total Charge           Charge          ....    1
 Multiplicity           Mult            ....    2
 Number of Electrons    NEL             ....   29
Dispersion correction           -0.006719124
FINAL SINGLE POINT ENERGY       -52.423968766878
Dispersion correction             ... done (  0.0 sec)
Dispersion correction           -0.006665993
FINAL SINGLE POINT ENERGY       -52.426664271024
Dispersion correction             ... done (  0.0 sec)
Dispersion correction           -0.006641360
FINAL SINGLE POINT ENERGY       -52.427067106088
Dispersion correction             ... done (  0.0 sec)
FINAL SINGLE POINT ENERGY       -52.428401716304
FINAL SINGLE POINT ENERGY       -52.429155814366
FINAL SINGLE POINT ENERGY       -52.429782196104
FINAL SINGLE POINT ENERGY       -52.430084527013
FINAL SINGLE POINT ENERGY       -52.430454436194
FINAL SINGLE POINT ENERGY       -52.430889274665
FINAL SINGLE POINT ENERGY       -52.431343902687
FINAL SINGLE POINT ENERGY       -52.464124868752
FINAL SINGLE POINT ENERGY       -52.464500653562
FINAL SINGLE POINT ENERGY       -52.464718560146
FINAL SINGLE POINT ENERGY       -52.465023497182
FINAL SINGLE POINT ENERGY       -52.465401411290
FINAL SINGLE POINT ENERGY       -52.465522047789
FINAL SINGLE POINT ENERGY       -52.465564045660
Dispersion correction             ... done (  0.0 sec)
Dispersion correction           -0.006766870
FINAL SINGLE POINT ENERGY       -52.465595463661
Dispersion correction             ... done (  0.0 sec)
Dispersion correction           -0.006762882
FINAL SINGLE POINT ENERGY       -52.465612293136
Dispersion correction             ... done (  0.0 sec)
                    ***********************HURRAY********************

CARTESIAN COORDINATES (ANGSTROEM)
---------------------------------
  C     -0.382626   -1.383916   -0.408428
  C      0.047022   -1.734406    0.937758
  C      0.155405    0.996372   -0.570353
  O      1.394662    0.699245   -0.627131
  O     -0.717015    0.123289   -0.481241
  H      1.983728    1.465142   -0.696527
  H      0.356278   -1.557175   -1.182821
  H     -1.349305   -1.791926   -0.689108
  H      1.031319   -2.147445    1.097300
  H     -0.647072   -1.657541    1.762063
  H     -0.177065    2.033711   -0.601465

 Multiplicity           Mult            ....    2
 Number of Electrons    NEL             ....   29
 Basis Dimension        Dim             ....   95

ORBITAL ENERGIES
----------------
                 SPIN UP ORBITALS
  NO   OCC          E(Eh)            E(eV)
   0   1.0000      -1.529662       -41.6242
   1   1.0000      -1.444238       -39.2997
   2   1.0000      -1.138486       -30.9798
   3   1.0000      -1.037287       -28.2260
   4   1.0000      -0.990643       -26.9568
   5   1.0000      -0.938841       -25.5472
   6   1.0000      -0.877949       -23.8902
   7   1.0000      -0.842851       -22.9351
   8   1.0000      -0.786998       -21.4153
   9   1.0000      -0.763908       -20.7870
  10   1.0000      -0.751084       -20.4380
  11   1.0000      -0.726625       -19.7725
  12   1.0000      -0.687320       -18.7029
  13   1.0000      -0.666328       -18.1317
  14   1.0000      -0.520386       -14.1604
  15   0.0000      -0.174828        -4.7573
  16   0.0000      -0.112324        -3.0565
  17   0.0000      -0.055396        -1.5074
  18   0.0000      -0.043950        -1.1959
  19   0.0000      -0.031744        -0.8638

                 SPIN DOWN ORBITALS
  NO   OCC          E(Eh)            E(eV)
   0   1.0000      -1.528167       -41.5835
   1   1.0000      -1.441800       -39.2334
   2   1.0000      -1.126873       -30.6638
   3   1.0000      -1.029965       -28.0268
   4   1.0000      -0.976379       -26.5686
   5   1.0000      -0.928997       -25.2793
   6   1.0000      -0.872477       -23.7413
   7   1.0000      -0.838674       -22.8215
   8   1.0000      -0.780190       -21.2300
   9   1.0000      -0.759299       -20.6616
  10   1.0000      -0.745354       -20.2821
  11   1.0000      -0.719741       -19.5852
  12   1.0000      -0.681229       -18.5372
  13   1.0000      -0.659905       -17.9569
  14   0.0000      -0.187308        -5.0969
  15   0.0000      -0.171370        -4.6632
  16   0.0000      -0.112222        -3.0537
  17   0.0000      -0.054611        -1.4860
  18   0.0000      -0.042179        -1.1477

MULLIKEN ATOMIC CHARGES AND SPIN POPULATIONS
--------------------------------------------
   0 C :    0.119327   -0.000562
   1 C :    0.004428    0.965506
   2 C :    0.355447    0.001655
   3 O :   -0.026602   -0.000020
   4 O :   -0.126391    0.038421
   5 H :    0.219316    0.000020
   6 H :    0.092134   -0.000448
   7 H :    0.106681    0.026818
   8 H :    0.080714   -0.017236
   9 H :    0.083739   -0.016734
  10 H :    0.091207    0.002580
Sum of atomic charges         :    1.0000000

LOEWDIN ATOMIC CHARGES AND SPIN POPULATIONS
-------------------------------------------
   0 C :    0.037036    0.069571
   1 C :    0.065825    0.777554
   2 C :    0.140561    0.005770
   3 O :    0.154330    0.001592
   4 O :    0.102578    0.056086
   5 H :    0.131115    0.000009
   6 H :    0.074256   -0.000836
   7 H :    0.088753    0.020430
   8 H :    0.047838    0.034194
   9 H :    0.048292    0.032867
  10 H :    0.109416    0.002764

  Mayer bond orders larger than 0.100000
B(  0-C ,  1-C ) :   1.1345 B(  0-C ,  4-O ) :   0.6837 B(  0-C ,  6-H ) :   0.9919
B(  0-C ,  7-H ) :   0.9869 B(  1-C ,  8-H ) :   1.0091 B(  1-C ,  9-H ) :   1.0078
B(  2-C ,  3-O ) :   1.3672 B(  2-C ,  4-O ) :   1.5483 B(  2-C , 10-H ) :   1.0226
B(  3-O ,  5-H ) :   0.9969

Dispersion correction           -0.006762814
FINAL SINGLE POINT ENERGY       -52.465626300782

DIPOLE MOMENT
-------------

Method             : SCF
Type of density    : Electron Density
Multiplicity       :   2
Irrep              :   0
Energy             :   -52.4588634868585189 Eh
Relativity type    :
Basis              : AO
                                X                 Y                 Z
Electronic contribution:     -0.395108040       2.469234107      -1.020246095
Nuclear contribution   :      1.020267815      -1.367416124       0.723303980
                        -----------------------------------------
Total Dipole Moment    :      0.625159776       1.101817983      -0.296942115
                        -----------------------------------------
Magnitude (a.u.)       :      1.301154192
Magnitude (Debye)      :      3.307271124

Rotational constants in cm-1:             0.331772             0.127077             0.105578
Rotational constants in MHz :          9946.279616          3809.664418          3165.146262

                             ****ORCA TERMINATED NORMALLY****
TOTAL RUN TIME: 0 days 0 hours 22 minutes 59 seconds 626 msec
